V -t * -v 1.0a5 -a 0
A -t * -n 1 -p 0 -o 0x7fffffff -c 30 -a 1
A -t * -h 1 -m 1073741823 -s 0
c -t * -i 1 -n blue
c -t * -i 2 -n red
n -t * -a 4 -s 4 -S UP -v circle -c green -i green
n -t * -a 0 -s 0 -S UP -v circle -c red -i red
n -t * -a 5 -s 5 -S UP -v circle -c green -i green
n -t * -a 1 -s 1 -S UP -v circle -c red -i red
n -t * -a 2 -s 2 -S UP -v circle -c green -i green
n -t * -a 3 -s 3 -S UP -v circle -c green -i green
l -t * -s 0 -d 1 -S UP -r 5000000 -D 0.002 -c black
l -t * -s 1 -d 2 -S UP -r 5000000 -D 0.002 -c black
l -t * -s 2 -d 3 -S UP -r 5000000 -D 0.002 -c black
l -t * -s 3 -d 4 -S UP -r 5000000 -D 0.002 -c black
l -t * -s 4 -d 5 -S UP -r 5000000 -D 0.002 -c black
l -t * -s 5 -d 0 -S UP -r 5000000 -D 0.002 -c black
+ -t 0 -s 0 -d 1 -p cbr -e 210 -c 1 -i 0 -a 1 -x {0.0 1.0 0 ------- null}
- -t 0 -s 0 -d 1 -p cbr -e 210 -c 1 -i 0 -a 1 -x {0.0 1.0 0 ------- null}
h -t 0 -s 0 -d 1 -p cbr -e 210 -c 1 -i 0 -a 1 -x {0.0 1.0 -1 ------- null}
+ -t 0 -s 1 -d 2 -p cbr -e 210 -c 1 -i 1 -a 1 -x {1.1 2.0 0 ------- null}
- -t 0 -s 1 -d 2 -p cbr -e 210 -c 1 -i 1 -a 1 -x {1.1 2.0 0 ------- null}
h -t 0 -s 1 -d 2 -p cbr -e 210 -c 1 -i 1 -a 1 -x {1.1 2.0 -1 ------- null}
+ -t 0 -s 2 -d 3 -p cbr -e 210 -c 1 -i 2 -a 1 -x {2.1 3.0 0 ------- null}
- -t 0 -s 2 -d 3 -p cbr -e 210 -c 1 -i 2 -a 1 -x {2.1 3.0 0 ------- null}
h -t 0 -s 2 -d 3 -p cbr -e 210 -c 1 -i 2 -a 1 -x {2.1 3.0 -1 ------- null}
+ -t 0 -s 3 -d 4 -p cbr -e 210 -c 1 -i 3 -a 1 -x {3.1 4.0 0 ------- null}
- -t 0 -s 3 -d 4 -p cbr -e 210 -c 1 -i 3 -a 1 -x {3.1 4.0 0 ------- null}
h -t 0 -s 3 -d 4 -p cbr -e 210 -c 1 -i 3 -a 1 -x {3.1 4.0 -1 ------- null}
+ -t 0 -s 4 -d 5 -p cbr -e 210 -c 1 -i 4 -a 1 -x {4.1 5.0 0 ------- null}
- -t 0 -s 4 -d 5 -p cbr -e 210 -c 1 -i 4 -a 1 -x {4.1 5.0 0 ------- null}
h -t 0 -s 4 -d 5 -p cbr -e 210 -c 1 -i 4 -a 1 -x {4.1 5.0 -1 ------- null}
r -t 0.002336 -s 0 -d 1 -p cbr -e 210 -c 1 -i 0 -a 1 -x {0.0 1.0 0 ------- null}
r -t 0.002336 -s 1 -d 2 -p cbr -e 210 -c 1 -i 1 -a 1 -x {1.1 2.0 0 ------- null}
r -t 0.002336 -s 2 -d 3 -p cbr -e 210 -c 1 -i 2 -a 1 -x {2.1 3.0 0 ------- null}
r -t 0.002336 -s 3 -d 4 -p cbr -e 210 -c 1 -i 3 -a 1 -x {3.1 4.0 0 ------- null}
r -t 0.002336 -s 4 -d 5 -p cbr -e 210 -c 1 -i 4 -a 1 -x {4.1 5.0 0 ------- null}
+ -t 0.00375 -s 0 -d 1 -p cbr -e 210 -c 1 -i 5 -a 1 -x {0.0 1.0 1 ------- null}
- -t 0.00375 -s 0 -d 1 -p cbr -e 210 -c 1 -i 5 -a 1 -x {0.0 1.0 1 ------- null}
h -t 0.00375 -s 0 -d 1 -p cbr -e 210 -c 1 -i 5 -a 1 -x {0.0 1.0 -1 ------- null}
+ -t 0.00375 -s 1 -d 2 -p cbr -e 210 -c 1 -i 6 -a 1 -x {1.1 2.0 1 ------- null}
- -t 0.00375 -s 1 -d 2 -p cbr -e 210 -c 1 -i 6 -a 1 -x {1.1 2.0 1 ------- null}
h -t 0.00375 -s 1 -d 2 -p cbr -e 210 -c 1 -i 6 -a 1 -x {1.1 2.0 -1 ------- null}
+ -t 0.00375 -s 2 -d 3 -p cbr -e 210 -c 1 -i 7 -a 1 -x {2.1 3.0 1 ------- null}
- -t 0.00375 -s 2 -d 3 -p cbr -e 210 -c 1 -i 7 -a 1 -x {2.1 3.0 1 ------- null}
h -t 0.00375 -s 2 -d 3 -p cbr -e 210 -c 1 -i 7 -a 1 -x {2.1 3.0 -1 ------- null}
+ -t 0.00375 -s 3 -d 4 -p cbr -e 210 -c 1 -i 8 -a 1 -x {3.1 4.0 1 ------- null}
- -t 0.00375 -s 3 -d 4 -p cbr -e 210 -c 1 -i 8 -a 1 -x {3.1 4.0 1 ------- null}
h -t 0.00375 -s 3 -d 4 -p cbr -e 210 -c 1 -i 8 -a 1 -x {3.1 4.0 -1 ------- null}
+ -t 0.00375 -s 4 -d 5 -p cbr -e 210 -c 1 -i 9 -a 1 -x {4.1 5.0 1 ------- null}
- -t 0.00375 -s 4 -d 5 -p cbr -e 210 -c 1 -i 9 -a 1 -x {4.1 5.0 1 ------- null}
h -t 0.00375 -s 4 -d 5 -p cbr -e 210 -c 1 -i 9 -a 1 -x {4.1 5.0 -1 ------- null}
r -t 0.006086 -s 0 -d 1 -p cbr -e 210 -c 1 -i 5 -a 1 -x {0.0 1.0 1 ------- null}
r -t 0.006086 -s 1 -d 2 -p cbr -e 210 -c 1 -i 6 -a 1 -x {1.1 2.0 1 ------- null}
r -t 0.006086 -s 2 -d 3 -p cbr -e 210 -c 1 -i 7 -a 1 -x {2.1 3.0 1 ------- null}
r -t 0.006086 -s 3 -d 4 -p cbr -e 210 -c 1 -i 8 -a 1 -x {3.1 4.0 1 ------- null}
r -t 0.006086 -s 4 -d 5 -p cbr -e 210 -c 1 -i 9 -a 1 -x {4.1 5.0 1 ------- null}
+ -t 0.0075 -s 0 -d 1 -p cbr -e 210 -c 1 -i 10 -a 1 -x {0.0 1.0 2 ------- null}
- -t 0.0075 -s 0 -d 1 -p cbr -e 210 -c 1 -i 10 -a 1 -x {0.0 1.0 2 ------- null}
h -t 0.0075 -s 0 -d 1 -p cbr -e 210 -c 1 -i 10 -a 1 -x {0.0 1.0 -1 ------- null}
+ -t 0.0075 -s 1 -d 2 -p cbr -e 210 -c 1 -i 11 -a 1 -x {1.1 2.0 2 ------- null}
- -t 0.0075 -s 1 -d 2 -p cbr -e 210 -c 1 -i 11 -a 1 -x {1.1 2.0 2 ------- null}
h -t 0.0075 -s 1 -d 2 -p cbr -e 210 -c 1 -i 11 -a 1 -x {1.1 2.0 -1 ------- null}
+ -t 0.0075 -s 2 -d 3 -p cbr -e 210 -c 1 -i 12 -a 1 -x {2.1 3.0 2 ------- null}
- -t 0.0075 -s 2 -d 3 -p cbr -e 210 -c 1 -i 12 -a 1 -x {2.1 3.0 2 ------- null}
h -t 0.0075 -s 2 -d 3 -p cbr -e 210 -c 1 -i 12 -a 1 -x {2.1 3.0 -1 ------- null}
+ -t 0.0075 -s 3 -d 4 -p cbr -e 210 -c 1 -i 13 -a 1 -x {3.1 4.0 2 ------- null}
- -t 0.0075 -s 3 -d 4 -p cbr -e 210 -c 1 -i 13 -a 1 -x {3.1 4.0 2 ------- null}
h -t 0.0075 -s 3 -d 4 -p cbr -e 210 -c 1 -i 13 -a 1 -x {3.1 4.0 -1 ------- null}
+ -t 0.0075 -s 4 -d 5 -p cbr -e 210 -c 1 -i 14 -a 1 -x {4.1 5.0 2 ------- null}
- -t 0.0075 -s 4 -d 5 -p cbr -e 210 -c 1 -i 14 -a 1 -x {4.1 5.0 2 ------- null}
h -t 0.0075 -s 4 -d 5 -p cbr -e 210 -c 1 -i 14 -a 1 -x {4.1 5.0 -1 ------- null}
r -t 0.009836 -s 0 -d 1 -p cbr -e 210 -c 1 -i 10 -a 1 -x {0.0 1.0 2 ------- null}
r -t 0.009836 -s 1 -d 2 -p cbr -e 210 -c 1 -i 11 -a 1 -x {1.1 2.0 2 ------- null}
r -t 0.009836 -s 2 -d 3 -p cbr -e 210 -c 1 -i 12 -a 1 -x {2.1 3.0 2 ------- null}
r -t 0.009836 -s 3 -d 4 -p cbr -e 210 -c 1 -i 13 -a 1 -x {3.1 4.0 2 ------- null}
r -t 0.009836 -s 4 -d 5 -p cbr -e 210 -c 1 -i 14 -a 1 -x {4.1 5.0 2 ------- null}
+ -t 0.01125 -s 0 -d 1 -p cbr -e 210 -c 1 -i 15 -a 1 -x {0.0 1.0 3 ------- null}
- -t 0.01125 -s 0 -d 1 -p cbr -e 210 -c 1 -i 15 -a 1 -x {0.0 1.0 3 ------- null}
h -t 0.01125 -s 0 -d 1 -p cbr -e 210 -c 1 -i 15 -a 1 -x {0.0 1.0 -1 ------- null}
+ -t 0.01125 -s 1 -d 2 -p cbr -e 210 -c 1 -i 16 -a 1 -x {1.1 2.0 3 ------- null}
- -t 0.01125 -s 1 -d 2 -p cbr -e 210 -c 1 -i 16 -a 1 -x {1.1 2.0 3 ------- null}
h -t 0.01125 -s 1 -d 2 -p cbr -e 210 -c 1 -i 16 -a 1 -x {1.1 2.0 -1 ------- null}
+ -t 0.01125 -s 2 -d 3 -p cbr -e 210 -c 1 -i 17 -a 1 -x {2.1 3.0 3 ------- null}
- -t 0.01125 -s 2 -d 3 -p cbr -e 210 -c 1 -i 17 -a 1 -x {2.1 3.0 3 ------- null}
h -t 0.01125 -s 2 -d 3 -p cbr -e 210 -c 1 -i 17 -a 1 -x {2.1 3.0 -1 ------- null}
+ -t 0.01125 -s 3 -d 4 -p cbr -e 210 -c 1 -i 18 -a 1 -x {3.1 4.0 3 ------- null}
- -t 0.01125 -s 3 -d 4 -p cbr -e 210 -c 1 -i 18 -a 1 -x {3.1 4.0 3 ------- null}
h -t 0.01125 -s 3 -d 4 -p cbr -e 210 -c 1 -i 18 -a 1 -x {3.1 4.0 -1 ------- null}
+ -t 0.01125 -s 4 -d 5 -p cbr -e 210 -c 1 -i 19 -a 1 -x {4.1 5.0 3 ------- null}
- -t 0.01125 -s 4 -d 5 -p cbr -e 210 -c 1 -i 19 -a 1 -x {4.1 5.0 3 ------- null}
h -t 0.01125 -s 4 -d 5 -p cbr -e 210 -c 1 -i 19 -a 1 -x {4.1 5.0 -1 ------- null}
r -t 0.013586 -s 0 -d 1 -p cbr -e 210 -c 1 -i 15 -a 1 -x {0.0 1.0 3 ------- null}
r -t 0.013586 -s 1 -d 2 -p cbr -e 210 -c 1 -i 16 -a 1 -x {1.1 2.0 3 ------- null}
r -t 0.013586 -s 2 -d 3 -p cbr -e 210 -c 1 -i 17 -a 1 -x {2.1 3.0 3 ------- null}
r -t 0.013586 -s 3 -d 4 -p cbr -e 210 -c 1 -i 18 -a 1 -x {3.1 4.0 3 ------- null}
r -t 0.013586 -s 4 -d 5 -p cbr -e 210 -c 1 -i 19 -a 1 -x {4.1 5.0 3 ------- null}
+ -t 0.015 -s 0 -d 1 -p cbr -e 210 -c 1 -i 20 -a 1 -x {0.0 1.0 4 ------- null}
- -t 0.015 -s 0 -d 1 -p cbr -e 210 -c 1 -i 20 -a 1 -x {0.0 1.0 4 ------- null}
h -t 0.015 -s 0 -d 1 -p cbr -e 210 -c 1 -i 20 -a 1 -x {0.0 1.0 -1 ------- null}
+ -t 0.015 -s 1 -d 2 -p cbr -e 210 -c 1 -i 21 -a 1 -x {1.1 2.0 4 ------- null}
- -t 0.015 -s 1 -d 2 -p cbr -e 210 -c 1 -i 21 -a 1 -x {1.1 2.0 4 ------- null}
h -t 0.015 -s 1 -d 2 -p cbr -e 210 -c 1 -i 21 -a 1 -x {1.1 2.0 -1 ------- null}
+ -t 0.015 -s 2 -d 3 -p cbr -e 210 -c 1 -i 22 -a 1 -x {2.1 3.0 4 ------- null}
- -t 0.015 -s 2 -d 3 -p cbr -e 210 -c 1 -i 22 -a 1 -x {2.1 3.0 4 ------- null}
h -t 0.015 -s 2 -d 3 -p cbr -e 210 -c 1 -i 22 -a 1 -x {2.1 3.0 -1 ------- null}
+ -t 0.015 -s 3 -d 4 -p cbr -e 210 -c 1 -i 23 -a 1 -x {3.1 4.0 4 ------- null}
- -t 0.015 -s 3 -d 4 -p cbr -e 210 -c 1 -i 23 -a 1 -x {3.1 4.0 4 ------- null}
h -t 0.015 -s 3 -d 4 -p cbr -e 210 -c 1 -i 23 -a 1 -x {3.1 4.0 -1 ------- null}
+ -t 0.015 -s 4 -d 5 -p cbr -e 210 -c 1 -i 24 -a 1 -x {4.1 5.0 4 ------- null}
- -t 0.015 -s 4 -d 5 -p cbr -e 210 -c 1 -i 24 -a 1 -x {4.1 5.0 4 ------- null}
h -t 0.015 -s 4 -d 5 -p cbr -e 210 -c 1 -i 24 -a 1 -x {4.1 5.0 -1 ------- null}
r -t 0.017336 -s 0 -d 1 -p cbr -e 210 -c 1 -i 20 -a 1 -x {0.0 1.0 4 ------- null}
r -t 0.017336 -s 1 -d 2 -p cbr -e 210 -c 1 -i 21 -a 1 -x {1.1 2.0 4 ------- null}
r -t 0.017336 -s 2 -d 3 -p cbr -e 210 -c 1 -i 22 -a 1 -x {2.1 3.0 4 ------- null}
r -t 0.017336 -s 3 -d 4 -p cbr -e 210 -c 1 -i 23 -a 1 -x {3.1 4.0 4 ------- null}
r -t 0.017336 -s 4 -d 5 -p cbr -e 210 -c 1 -i 24 -a 1 -x {4.1 5.0 4 ------- null}
+ -t 0.01875 -s 0 -d 1 -p cbr -e 210 -c 1 -i 25 -a 1 -x {0.0 1.0 5 ------- null}
- -t 0.01875 -s 0 -d 1 -p cbr -e 210 -c 1 -i 25 -a 1 -x {0.0 1.0 5 ------- null}
h -t 0.01875 -s 0 -d 1 -p cbr -e 210 -c 1 -i 25 -a 1 -x {0.0 1.0 -1 ------- null}
+ -t 0.01875 -s 1 -d 2 -p cbr -e 210 -c 1 -i 26 -a 1 -x {1.1 2.0 5 ------- null}
- -t 0.01875 -s 1 -d 2 -p cbr -e 210 -c 1 -i 26 -a 1 -x {1.1 2.0 5 ------- null}
h -t 0.01875 -s 1 -d 2 -p cbr -e 210 -c 1 -i 26 -a 1 -x {1.1 2.0 -1 ------- null}
+ -t 0.01875 -s 2 -d 3 -p cbr -e 210 -c 1 -i 27 -a 1 -x {2.1 3.0 5 ------- null}
- -t 0.01875 -s 2 -d 3 -p cbr -e 210 -c 1 -i 27 -a 1 -x {2.1 3.0 5 ------- null}
h -t 0.01875 -s 2 -d 3 -p cbr -e 210 -c 1 -i 27 -a 1 -x {2.1 3.0 -1 ------- null}
+ -t 0.01875 -s 3 -d 4 -p cbr -e 210 -c 1 -i 28 -a 1 -x {3.1 4.0 5 ------- null}
- -t 0.01875 -s 3 -d 4 -p cbr -e 210 -c 1 -i 28 -a 1 -x {3.1 4.0 5 ------- null}
h -t 0.01875 -s 3 -d 4 -p cbr -e 210 -c 1 -i 28 -a 1 -x {3.1 4.0 -1 ------- null}
+ -t 0.01875 -s 4 -d 5 -p cbr -e 210 -c 1 -i 29 -a 1 -x {4.1 5.0 5 ------- null}
- -t 0.01875 -s 4 -d 5 -p cbr -e 210 -c 1 -i 29 -a 1 -x {4.1 5.0 5 ------- null}
h -t 0.01875 -s 4 -d 5 -p cbr -e 210 -c 1 -i 29 -a 1 -x {4.1 5.0 -1 ------- null}
r -t 0.021086 -s 0 -d 1 -p cbr -e 210 -c 1 -i 25 -a 1 -x {0.0 1.0 5 ------- null}
r -t 0.021086 -s 1 -d 2 -p cbr -e 210 -c 1 -i 26 -a 1 -x {1.1 2.0 5 ------- null}
r -t 0.021086 -s 2 -d 3 -p cbr -e 210 -c 1 -i 27 -a 1 -x {2.1 3.0 5 ------- null}
r -t 0.021086 -s 3 -d 4 -p cbr -e 210 -c 1 -i 28 -a 1 -x {3.1 4.0 5 ------- null}
r -t 0.021086 -s 4 -d 5 -p cbr -e 210 -c 1 -i 29 -a 1 -x {4.1 5.0 5 ------- null}
+ -t 0.0225 -s 0 -d 1 -p cbr -e 210 -c 1 -i 30 -a 1 -x {0.0 1.0 6 ------- null}
- -t 0.0225 -s 0 -d 1 -p cbr -e 210 -c 1 -i 30 -a 1 -x {0.0 1.0 6 ------- null}
h -t 0.0225 -s 0 -d 1 -p cbr -e 210 -c 1 -i 30 -a 1 -x {0.0 1.0 -1 ------- null}
+ -t 0.0225 -s 1 -d 2 -p cbr -e 210 -c 1 -i 31 -a 1 -x {1.1 2.0 6 ------- null}
- -t 0.0225 -s 1 -d 2 -p cbr -e 210 -c 1 -i 31 -a 1 -x {1.1 2.0 6 ------- null}
h -t 0.0225 -s 1 -d 2 -p cbr -e 210 -c 1 -i 31 -a 1 -x {1.1 2.0 -1 ------- null}
+ -t 0.0225 -s 2 -d 3 -p cbr -e 210 -c 1 -i 32 -a 1 -x {2.1 3.0 6 ------- null}
- -t 0.0225 -s 2 -d 3 -p cbr -e 210 -c 1 -i 32 -a 1 -x {2.1 3.0 6 ------- null}
h -t 0.0225 -s 2 -d 3 -p cbr -e 210 -c 1 -i 32 -a 1 -x {2.1 3.0 -1 ------- null}
+ -t 0.0225 -s 3 -d 4 -p cbr -e 210 -c 1 -i 33 -a 1 -x {3.1 4.0 6 ------- null}
- -t 0.0225 -s 3 -d 4 -p cbr -e 210 -c 1 -i 33 -a 1 -x {3.1 4.0 6 ------- null}
h -t 0.0225 -s 3 -d 4 -p cbr -e 210 -c 1 -i 33 -a 1 -x {3.1 4.0 -1 ------- null}
+ -t 0.0225 -s 4 -d 5 -p cbr -e 210 -c 1 -i 34 -a 1 -x {4.1 5.0 6 ------- null}
- -t 0.0225 -s 4 -d 5 -p cbr -e 210 -c 1 -i 34 -a 1 -x {4.1 5.0 6 ------- null}
h -t 0.0225 -s 4 -d 5 -p cbr -e 210 -c 1 -i 34 -a 1 -x {4.1 5.0 -1 ------- null}
r -t 0.024836 -s 0 -d 1 -p cbr -e 210 -c 1 -i 30 -a 1 -x {0.0 1.0 6 ------- null}
r -t 0.024836 -s 1 -d 2 -p cbr -e 210 -c 1 -i 31 -a 1 -x {1.1 2.0 6 ------- null}
r -t 0.024836 -s 2 -d 3 -p cbr -e 210 -c 1 -i 32 -a 1 -x {2.1 3.0 6 ------- null}
r -t 0.024836 -s 3 -d 4 -p cbr -e 210 -c 1 -i 33 -a 1 -x {3.1 4.0 6 ------- null}
r -t 0.024836 -s 4 -d 5 -p cbr -e 210 -c 1 -i 34 -a 1 -x {4.1 5.0 6 ------- null}
+ -t 0.02625 -s 0 -d 1 -p cbr -e 210 -c 1 -i 35 -a 1 -x {0.0 1.0 7 ------- null}
- -t 0.02625 -s 0 -d 1 -p cbr -e 210 -c 1 -i 35 -a 1 -x {0.0 1.0 7 ------- null}
h -t 0.02625 -s 0 -d 1 -p cbr -e 210 -c 1 -i 35 -a 1 -x {0.0 1.0 -1 ------- null}
+ -t 0.02625 -s 1 -d 2 -p cbr -e 210 -c 1 -i 36 -a 1 -x {1.1 2.0 7 ------- null}
- -t 0.02625 -s 1 -d 2 -p cbr -e 210 -c 1 -i 36 -a 1 -x {1.1 2.0 7 ------- null}
h -t 0.02625 -s 1 -d 2 -p cbr -e 210 -c 1 -i 36 -a 1 -x {1.1 2.0 -1 ------- null}
+ -t 0.02625 -s 2 -d 3 -p cbr -e 210 -c 1 -i 37 -a 1 -x {2.1 3.0 7 ------- null}
- -t 0.02625 -s 2 -d 3 -p cbr -e 210 -c 1 -i 37 -a 1 -x {2.1 3.0 7 ------- null}
h -t 0.02625 -s 2 -d 3 -p cbr -e 210 -c 1 -i 37 -a 1 -x {2.1 3.0 -1 ------- null}
+ -t 0.02625 -s 3 -d 4 -p cbr -e 210 -c 1 -i 38 -a 1 -x {3.1 4.0 7 ------- null}
- -t 0.02625 -s 3 -d 4 -p cbr -e 210 -c 1 -i 38 -a 1 -x {3.1 4.0 7 ------- null}
h -t 0.02625 -s 3 -d 4 -p cbr -e 210 -c 1 -i 38 -a 1 -x {3.1 4.0 -1 ------- null}
+ -t 0.02625 -s 4 -d 5 -p cbr -e 210 -c 1 -i 39 -a 1 -x {4.1 5.0 7 ------- null}
- -t 0.02625 -s 4 -d 5 -p cbr -e 210 -c 1 -i 39 -a 1 -x {4.1 5.0 7 ------- null}
h -t 0.02625 -s 4 -d 5 -p cbr -e 210 -c 1 -i 39 -a 1 -x {4.1 5.0 -1 ------- null}
r -t 0.028586 -s 0 -d 1 -p cbr -e 210 -c 1 -i 35 -a 1 -x {0.0 1.0 7 ------- null}
r -t 0.028586 -s 1 -d 2 -p cbr -e 210 -c 1 -i 36 -a 1 -x {1.1 2.0 7 ------- null}
r -t 0.028586 -s 2 -d 3 -p cbr -e 210 -c 1 -i 37 -a 1 -x {2.1 3.0 7 ------- null}
r -t 0.028586 -s 3 -d 4 -p cbr -e 210 -c 1 -i 38 -a 1 -x {3.1 4.0 7 ------- null}
r -t 0.028586 -s 4 -d 5 -p cbr -e 210 -c 1 -i 39 -a 1 -x {4.1 5.0 7 ------- null}
+ -t 0.03 -s 0 -d 1 -p cbr -e 210 -c 1 -i 40 -a 1 -x {0.0 1.0 8 ------- null}
- -t 0.03 -s 0 -d 1 -p cbr -e 210 -c 1 -i 40 -a 1 -x {0.0 1.0 8 ------- null}
h -t 0.03 -s 0 -d 1 -p cbr -e 210 -c 1 -i 40 -a 1 -x {0.0 1.0 -1 ------- null}
+ -t 0.03 -s 1 -d 2 -p cbr -e 210 -c 1 -i 41 -a 1 -x {1.1 2.0 8 ------- null}
- -t 0.03 -s 1 -d 2 -p cbr -e 210 -c 1 -i 41 -a 1 -x {1.1 2.0 8 ------- null}
h -t 0.03 -s 1 -d 2 -p cbr -e 210 -c 1 -i 41 -a 1 -x {1.1 2.0 -1 ------- null}
+ -t 0.03 -s 2 -d 3 -p cbr -e 210 -c 1 -i 42 -a 1 -x {2.1 3.0 8 ------- null}
- -t 0.03 -s 2 -d 3 -p cbr -e 210 -c 1 -i 42 -a 1 -x {2.1 3.0 8 ------- null}
h -t 0.03 -s 2 -d 3 -p cbr -e 210 -c 1 -i 42 -a 1 -x {2.1 3.0 -1 ------- null}
+ -t 0.03 -s 3 -d 4 -p cbr -e 210 -c 1 -i 43 -a 1 -x {3.1 4.0 8 ------- null}
- -t 0.03 -s 3 -d 4 -p cbr -e 210 -c 1 -i 43 -a 1 -x {3.1 4.0 8 ------- null}
h -t 0.03 -s 3 -d 4 -p cbr -e 210 -c 1 -i 43 -a 1 -x {3.1 4.0 -1 ------- null}
+ -t 0.03 -s 4 -d 5 -p cbr -e 210 -c 1 -i 44 -a 1 -x {4.1 5.0 8 ------- null}
- -t 0.03 -s 4 -d 5 -p cbr -e 210 -c 1 -i 44 -a 1 -x {4.1 5.0 8 ------- null}
h -t 0.03 -s 4 -d 5 -p cbr -e 210 -c 1 -i 44 -a 1 -x {4.1 5.0 -1 ------- null}
r -t 0.032336 -s 0 -d 1 -p cbr -e 210 -c 1 -i 40 -a 1 -x {0.0 1.0 8 ------- null}
r -t 0.032336 -s 1 -d 2 -p cbr -e 210 -c 1 -i 41 -a 1 -x {1.1 2.0 8 ------- null}
r -t 0.032336 -s 2 -d 3 -p cbr -e 210 -c 1 -i 42 -a 1 -x {2.1 3.0 8 ------- null}
r -t 0.032336 -s 3 -d 4 -p cbr -e 210 -c 1 -i 43 -a 1 -x {3.1 4.0 8 ------- null}
r -t 0.032336 -s 4 -d 5 -p cbr -e 210 -c 1 -i 44 -a 1 -x {4.1 5.0 8 ------- null}
+ -t 0.03375 -s 0 -d 1 -p cbr -e 210 -c 1 -i 45 -a 1 -x {0.0 1.0 9 ------- null}
- -t 0.03375 -s 0 -d 1 -p cbr -e 210 -c 1 -i 45 -a 1 -x {0.0 1.0 9 ------- null}
h -t 0.03375 -s 0 -d 1 -p cbr -e 210 -c 1 -i 45 -a 1 -x {0.0 1.0 -1 ------- null}
+ -t 0.03375 -s 1 -d 2 -p cbr -e 210 -c 1 -i 46 -a 1 -x {1.1 2.0 9 ------- null}
- -t 0.03375 -s 1 -d 2 -p cbr -e 210 -c 1 -i 46 -a 1 -x {1.1 2.0 9 ------- null}
h -t 0.03375 -s 1 -d 2 -p cbr -e 210 -c 1 -i 46 -a 1 -x {1.1 2.0 -1 ------- null}
+ -t 0.03375 -s 2 -d 3 -p cbr -e 210 -c 1 -i 47 -a 1 -x {2.1 3.0 9 ------- null}
- -t 0.03375 -s 2 -d 3 -p cbr -e 210 -c 1 -i 47 -a 1 -x {2.1 3.0 9 ------- null}
h -t 0.03375 -s 2 -d 3 -p cbr -e 210 -c 1 -i 47 -a 1 -x {2.1 3.0 -1 ------- null}
+ -t 0.03375 -s 3 -d 4 -p cbr -e 210 -c 1 -i 48 -a 1 -x {3.1 4.0 9 ------- null}
- -t 0.03375 -s 3 -d 4 -p cbr -e 210 -c 1 -i 48 -a 1 -x {3.1 4.0 9 ------- null}
h -t 0.03375 -s 3 -d 4 -p cbr -e 210 -c 1 -i 48 -a 1 -x {3.1 4.0 -1 ------- null}
+ -t 0.03375 -s 4 -d 5 -p cbr -e 210 -c 1 -i 49 -a 1 -x {4.1 5.0 9 ------- null}
- -t 0.03375 -s 4 -d 5 -p cbr -e 210 -c 1 -i 49 -a 1 -x {4.1 5.0 9 ------- null}
h -t 0.03375 -s 4 -d 5 -p cbr -e 210 -c 1 -i 49 -a 1 -x {4.1 5.0 -1 ------- null}
r -t 0.036086 -s 0 -d 1 -p cbr -e 210 -c 1 -i 45 -a 1 -x {0.0 1.0 9 ------- null}
r -t 0.036086 -s 1 -d 2 -p cbr -e 210 -c 1 -i 46 -a 1 -x {1.1 2.0 9 ------- null}
r -t 0.036086 -s 2 -d 3 -p cbr -e 210 -c 1 -i 47 -a 1 -x {2.1 3.0 9 ------- null}
r -t 0.036086 -s 3 -d 4 -p cbr -e 210 -c 1 -i 48 -a 1 -x {3.1 4.0 9 ------- null}
r -t 0.036086 -s 4 -d 5 -p cbr -e 210 -c 1 -i 49 -a 1 -x {4.1 5.0 9 ------- null}
+ -t 0.0375 -s 0 -d 1 -p cbr -e 210 -c 1 -i 50 -a 1 -x {0.0 1.0 10 ------- null}
- -t 0.0375 -s 0 -d 1 -p cbr -e 210 -c 1 -i 50 -a 1 -x {0.0 1.0 10 ------- null}
h -t 0.0375 -s 0 -d 1 -p cbr -e 210 -c 1 -i 50 -a 1 -x {0.0 1.0 -1 ------- null}
+ -t 0.0375 -s 1 -d 2 -p cbr -e 210 -c 1 -i 51 -a 1 -x {1.1 2.0 10 ------- null}
- -t 0.0375 -s 1 -d 2 -p cbr -e 210 -c 1 -i 51 -a 1 -x {1.1 2.0 10 ------- null}
h -t 0.0375 -s 1 -d 2 -p cbr -e 210 -c 1 -i 51 -a 1 -x {1.1 2.0 -1 ------- null}
+ -t 0.0375 -s 2 -d 3 -p cbr -e 210 -c 1 -i 52 -a 1 -x {2.1 3.0 10 ------- null}
- -t 0.0375 -s 2 -d 3 -p cbr -e 210 -c 1 -i 52 -a 1 -x {2.1 3.0 10 ------- null}
h -t 0.0375 -s 2 -d 3 -p cbr -e 210 -c 1 -i 52 -a 1 -x {2.1 3.0 -1 ------- null}
+ -t 0.0375 -s 3 -d 4 -p cbr -e 210 -c 1 -i 53 -a 1 -x {3.1 4.0 10 ------- null}
- -t 0.0375 -s 3 -d 4 -p cbr -e 210 -c 1 -i 53 -a 1 -x {3.1 4.0 10 ------- null}
h -t 0.0375 -s 3 -d 4 -p cbr -e 210 -c 1 -i 53 -a 1 -x {3.1 4.0 -1 ------- null}
+ -t 0.0375 -s 4 -d 5 -p cbr -e 210 -c 1 -i 54 -a 1 -x {4.1 5.0 10 ------- null}
- -t 0.0375 -s 4 -d 5 -p cbr -e 210 -c 1 -i 54 -a 1 -x {4.1 5.0 10 ------- null}
h -t 0.0375 -s 4 -d 5 -p cbr -e 210 -c 1 -i 54 -a 1 -x {4.1 5.0 -1 ------- null}
r -t 0.039836 -s 0 -d 1 -p cbr -e 210 -c 1 -i 50 -a 1 -x {0.0 1.0 10 ------- null}
r -t 0.039836 -s 1 -d 2 -p cbr -e 210 -c 1 -i 51 -a 1 -x {1.1 2.0 10 ------- null}
r -t 0.039836 -s 2 -d 3 -p cbr -e 210 -c 1 -i 52 -a 1 -x {2.1 3.0 10 ------- null}
r -t 0.039836 -s 3 -d 4 -p cbr -e 210 -c 1 -i 53 -a 1 -x {3.1 4.0 10 ------- null}
r -t 0.039836 -s 4 -d 5 -p cbr -e 210 -c 1 -i 54 -a 1 -x {4.1 5.0 10 ------- null}
+ -t 0.04125 -s 0 -d 1 -p cbr -e 210 -c 1 -i 55 -a 1 -x {0.0 1.0 11 ------- null}
- -t 0.04125 -s 0 -d 1 -p cbr -e 210 -c 1 -i 55 -a 1 -x {0.0 1.0 11 ------- null}
h -t 0.04125 -s 0 -d 1 -p cbr -e 210 -c 1 -i 55 -a 1 -x {0.0 1.0 -1 ------- null}
+ -t 0.04125 -s 1 -d 2 -p cbr -e 210 -c 1 -i 56 -a 1 -x {1.1 2.0 11 ------- null}
- -t 0.04125 -s 1 -d 2 -p cbr -e 210 -c 1 -i 56 -a 1 -x {1.1 2.0 11 ------- null}
h -t 0.04125 -s 1 -d 2 -p cbr -e 210 -c 1 -i 56 -a 1 -x {1.1 2.0 -1 ------- null}
+ -t 0.04125 -s 2 -d 3 -p cbr -e 210 -c 1 -i 57 -a 1 -x {2.1 3.0 11 ------- null}
- -t 0.04125 -s 2 -d 3 -p cbr -e 210 -c 1 -i 57 -a 1 -x {2.1 3.0 11 ------- null}
h -t 0.04125 -s 2 -d 3 -p cbr -e 210 -c 1 -i 57 -a 1 -x {2.1 3.0 -1 ------- null}
+ -t 0.04125 -s 3 -d 4 -p cbr -e 210 -c 1 -i 58 -a 1 -x {3.1 4.0 11 ------- null}
- -t 0.04125 -s 3 -d 4 -p cbr -e 210 -c 1 -i 58 -a 1 -x {3.1 4.0 11 ------- null}
h -t 0.04125 -s 3 -d 4 -p cbr -e 210 -c 1 -i 58 -a 1 -x {3.1 4.0 -1 ------- null}
+ -t 0.04125 -s 4 -d 5 -p cbr -e 210 -c 1 -i 59 -a 1 -x {4.1 5.0 11 ------- null}
- -t 0.04125 -s 4 -d 5 -p cbr -e 210 -c 1 -i 59 -a 1 -x {4.1 5.0 11 ------- null}
h -t 0.04125 -s 4 -d 5 -p cbr -e 210 -c 1 -i 59 -a 1 -x {4.1 5.0 -1 ------- null}
r -t 0.043586 -s 0 -d 1 -p cbr -e 210 -c 1 -i 55 -a 1 -x {0.0 1.0 11 ------- null}
r -t 0.043586 -s 1 -d 2 -p cbr -e 210 -c 1 -i 56 -a 1 -x {1.1 2.0 11 ------- null}
r -t 0.043586 -s 2 -d 3 -p cbr -e 210 -c 1 -i 57 -a 1 -x {2.1 3.0 11 ------- null}
r -t 0.043586 -s 3 -d 4 -p cbr -e 210 -c 1 -i 58 -a 1 -x {3.1 4.0 11 ------- null}
r -t 0.043586 -s 4 -d 5 -p cbr -e 210 -c 1 -i 59 -a 1 -x {4.1 5.0 11 ------- null}
+ -t 0.045 -s 0 -d 1 -p cbr -e 210 -c 1 -i 60 -a 1 -x {0.0 1.0 12 ------- null}
- -t 0.045 -s 0 -d 1 -p cbr -e 210 -c 1 -i 60 -a 1 -x {0.0 1.0 12 ------- null}
h -t 0.045 -s 0 -d 1 -p cbr -e 210 -c 1 -i 60 -a 1 -x {0.0 1.0 -1 ------- null}
+ -t 0.045 -s 1 -d 2 -p cbr -e 210 -c 1 -i 61 -a 1 -x {1.1 2.0 12 ------- null}
- -t 0.045 -s 1 -d 2 -p cbr -e 210 -c 1 -i 61 -a 1 -x {1.1 2.0 12 ------- null}
h -t 0.045 -s 1 -d 2 -p cbr -e 210 -c 1 -i 61 -a 1 -x {1.1 2.0 -1 ------- null}
+ -t 0.045 -s 2 -d 3 -p cbr -e 210 -c 1 -i 62 -a 1 -x {2.1 3.0 12 ------- null}
- -t 0.045 -s 2 -d 3 -p cbr -e 210 -c 1 -i 62 -a 1 -x {2.1 3.0 12 ------- null}
h -t 0.045 -s 2 -d 3 -p cbr -e 210 -c 1 -i 62 -a 1 -x {2.1 3.0 -1 ------- null}
+ -t 0.045 -s 3 -d 4 -p cbr -e 210 -c 1 -i 63 -a 1 -x {3.1 4.0 12 ------- null}
- -t 0.045 -s 3 -d 4 -p cbr -e 210 -c 1 -i 63 -a 1 -x {3.1 4.0 12 ------- null}
h -t 0.045 -s 3 -d 4 -p cbr -e 210 -c 1 -i 63 -a 1 -x {3.1 4.0 -1 ------- null}
+ -t 0.045 -s 4 -d 5 -p cbr -e 210 -c 1 -i 64 -a 1 -x {4.1 5.0 12 ------- null}
- -t 0.045 -s 4 -d 5 -p cbr -e 210 -c 1 -i 64 -a 1 -x {4.1 5.0 12 ------- null}
h -t 0.045 -s 4 -d 5 -p cbr -e 210 -c 1 -i 64 -a 1 -x {4.1 5.0 -1 ------- null}
r -t 0.047336 -s 0 -d 1 -p cbr -e 210 -c 1 -i 60 -a 1 -x {0.0 1.0 12 ------- null}
r -t 0.047336 -s 1 -d 2 -p cbr -e 210 -c 1 -i 61 -a 1 -x {1.1 2.0 12 ------- null}
r -t 0.047336 -s 2 -d 3 -p cbr -e 210 -c 1 -i 62 -a 1 -x {2.1 3.0 12 ------- null}
r -t 0.047336 -s 3 -d 4 -p cbr -e 210 -c 1 -i 63 -a 1 -x {3.1 4.0 12 ------- null}
r -t 0.047336 -s 4 -d 5 -p cbr -e 210 -c 1 -i 64 -a 1 -x {4.1 5.0 12 ------- null}
+ -t 0.04875 -s 0 -d 1 -p cbr -e 210 -c 1 -i 65 -a 1 -x {0.0 1.0 13 ------- null}
- -t 0.04875 -s 0 -d 1 -p cbr -e 210 -c 1 -i 65 -a 1 -x {0.0 1.0 13 ------- null}
h -t 0.04875 -s 0 -d 1 -p cbr -e 210 -c 1 -i 65 -a 1 -x {0.0 1.0 -1 ------- null}
+ -t 0.04875 -s 1 -d 2 -p cbr -e 210 -c 1 -i 66 -a 1 -x {1.1 2.0 13 ------- null}
- -t 0.04875 -s 1 -d 2 -p cbr -e 210 -c 1 -i 66 -a 1 -x {1.1 2.0 13 ------- null}
h -t 0.04875 -s 1 -d 2 -p cbr -e 210 -c 1 -i 66 -a 1 -x {1.1 2.0 -1 ------- null}
+ -t 0.04875 -s 2 -d 3 -p cbr -e 210 -c 1 -i 67 -a 1 -x {2.1 3.0 13 ------- null}
- -t 0.04875 -s 2 -d 3 -p cbr -e 210 -c 1 -i 67 -a 1 -x {2.1 3.0 13 ------- null}
h -t 0.04875 -s 2 -d 3 -p cbr -e 210 -c 1 -i 67 -a 1 -x {2.1 3.0 -1 ------- null}
+ -t 0.04875 -s 3 -d 4 -p cbr -e 210 -c 1 -i 68 -a 1 -x {3.1 4.0 13 ------- null}
- -t 0.04875 -s 3 -d 4 -p cbr -e 210 -c 1 -i 68 -a 1 -x {3.1 4.0 13 ------- null}
h -t 0.04875 -s 3 -d 4 -p cbr -e 210 -c 1 -i 68 -a 1 -x {3.1 4.0 -1 ------- null}
+ -t 0.04875 -s 4 -d 5 -p cbr -e 210 -c 1 -i 69 -a 1 -x {4.1 5.0 13 ------- null}
- -t 0.04875 -s 4 -d 5 -p cbr -e 210 -c 1 -i 69 -a 1 -x {4.1 5.0 13 ------- null}
h -t 0.04875 -s 4 -d 5 -p cbr -e 210 -c 1 -i 69 -a 1 -x {4.1 5.0 -1 ------- null}
r -t 0.051086 -s 0 -d 1 -p cbr -e 210 -c 1 -i 65 -a 1 -x {0.0 1.0 13 ------- null}
r -t 0.051086 -s 1 -d 2 -p cbr -e 210 -c 1 -i 66 -a 1 -x {1.1 2.0 13 ------- null}
r -t 0.051086 -s 2 -d 3 -p cbr -e 210 -c 1 -i 67 -a 1 -x {2.1 3.0 13 ------- null}
r -t 0.051086 -s 3 -d 4 -p cbr -e 210 -c 1 -i 68 -a 1 -x {3.1 4.0 13 ------- null}
r -t 0.051086 -s 4 -d 5 -p cbr -e 210 -c 1 -i 69 -a 1 -x {4.1 5.0 13 ------- null}
+ -t 0.0525 -s 0 -d 1 -p cbr -e 210 -c 1 -i 70 -a 1 -x {0.0 1.0 14 ------- null}
- -t 0.0525 -s 0 -d 1 -p cbr -e 210 -c 1 -i 70 -a 1 -x {0.0 1.0 14 ------- null}
h -t 0.0525 -s 0 -d 1 -p cbr -e 210 -c 1 -i 70 -a 1 -x {0.0 1.0 -1 ------- null}
+ -t 0.0525 -s 1 -d 2 -p cbr -e 210 -c 1 -i 71 -a 1 -x {1.1 2.0 14 ------- null}
- -t 0.0525 -s 1 -d 2 -p cbr -e 210 -c 1 -i 71 -a 1 -x {1.1 2.0 14 ------- null}
h -t 0.0525 -s 1 -d 2 -p cbr -e 210 -c 1 -i 71 -a 1 -x {1.1 2.0 -1 ------- null}
+ -t 0.0525 -s 2 -d 3 -p cbr -e 210 -c 1 -i 72 -a 1 -x {2.1 3.0 14 ------- null}
- -t 0.0525 -s 2 -d 3 -p cbr -e 210 -c 1 -i 72 -a 1 -x {2.1 3.0 14 ------- null}
h -t 0.0525 -s 2 -d 3 -p cbr -e 210 -c 1 -i 72 -a 1 -x {2.1 3.0 -1 ------- null}
+ -t 0.0525 -s 3 -d 4 -p cbr -e 210 -c 1 -i 73 -a 1 -x {3.1 4.0 14 ------- null}
- -t 0.0525 -s 3 -d 4 -p cbr -e 210 -c 1 -i 73 -a 1 -x {3.1 4.0 14 ------- null}
h -t 0.0525 -s 3 -d 4 -p cbr -e 210 -c 1 -i 73 -a 1 -x {3.1 4.0 -1 ------- null}
+ -t 0.0525 -s 4 -d 5 -p cbr -e 210 -c 1 -i 74 -a 1 -x {4.1 5.0 14 ------- null}
- -t 0.0525 -s 4 -d 5 -p cbr -e 210 -c 1 -i 74 -a 1 -x {4.1 5.0 14 ------- null}
h -t 0.0525 -s 4 -d 5 -p cbr -e 210 -c 1 -i 74 -a 1 -x {4.1 5.0 -1 ------- null}
r -t 0.054836 -s 0 -d 1 -p cbr -e 210 -c 1 -i 70 -a 1 -x {0.0 1.0 14 ------- null}
r -t 0.054836 -s 1 -d 2 -p cbr -e 210 -c 1 -i 71 -a 1 -x {1.1 2.0 14 ------- null}
r -t 0.054836 -s 2 -d 3 -p cbr -e 210 -c 1 -i 72 -a 1 -x {2.1 3.0 14 ------- null}
r -t 0.054836 -s 3 -d 4 -p cbr -e 210 -c 1 -i 73 -a 1 -x {3.1 4.0 14 ------- null}
r -t 0.054836 -s 4 -d 5 -p cbr -e 210 -c 1 -i 74 -a 1 -x {4.1 5.0 14 ------- null}
+ -t 0.05625 -s 0 -d 1 -p cbr -e 210 -c 1 -i 75 -a 1 -x {0.0 1.0 15 ------- null}
- -t 0.05625 -s 0 -d 1 -p cbr -e 210 -c 1 -i 75 -a 1 -x {0.0 1.0 15 ------- null}
h -t 0.05625 -s 0 -d 1 -p cbr -e 210 -c 1 -i 75 -a 1 -x {0.0 1.0 -1 ------- null}
+ -t 0.05625 -s 1 -d 2 -p cbr -e 210 -c 1 -i 76 -a 1 -x {1.1 2.0 15 ------- null}
- -t 0.05625 -s 1 -d 2 -p cbr -e 210 -c 1 -i 76 -a 1 -x {1.1 2.0 15 ------- null}
h -t 0.05625 -s 1 -d 2 -p cbr -e 210 -c 1 -i 76 -a 1 -x {1.1 2.0 -1 ------- null}
+ -t 0.05625 -s 2 -d 3 -p cbr -e 210 -c 1 -i 77 -a 1 -x {2.1 3.0 15 ------- null}
- -t 0.05625 -s 2 -d 3 -p cbr -e 210 -c 1 -i 77 -a 1 -x {2.1 3.0 15 ------- null}
h -t 0.05625 -s 2 -d 3 -p cbr -e 210 -c 1 -i 77 -a 1 -x {2.1 3.0 -1 ------- null}
+ -t 0.05625 -s 3 -d 4 -p cbr -e 210 -c 1 -i 78 -a 1 -x {3.1 4.0 15 ------- null}
- -t 0.05625 -s 3 -d 4 -p cbr -e 210 -c 1 -i 78 -a 1 -x {3.1 4.0 15 ------- null}
h -t 0.05625 -s 3 -d 4 -p cbr -e 210 -c 1 -i 78 -a 1 -x {3.1 4.0 -1 ------- null}
+ -t 0.05625 -s 4 -d 5 -p cbr -e 210 -c 1 -i 79 -a 1 -x {4.1 5.0 15 ------- null}
- -t 0.05625 -s 4 -d 5 -p cbr -e 210 -c 1 -i 79 -a 1 -x {4.1 5.0 15 ------- null}
h -t 0.05625 -s 4 -d 5 -p cbr -e 210 -c 1 -i 79 -a 1 -x {4.1 5.0 -1 ------- null}
r -t 0.058586 -s 0 -d 1 -p cbr -e 210 -c 1 -i 75 -a 1 -x {0.0 1.0 15 ------- null}
r -t 0.058586 -s 1 -d 2 -p cbr -e 210 -c 1 -i 76 -a 1 -x {1.1 2.0 15 ------- null}
r -t 0.058586 -s 2 -d 3 -p cbr -e 210 -c 1 -i 77 -a 1 -x {2.1 3.0 15 ------- null}
r -t 0.058586 -s 3 -d 4 -p cbr -e 210 -c 1 -i 78 -a 1 -x {3.1 4.0 15 ------- null}
r -t 0.058586 -s 4 -d 5 -p cbr -e 210 -c 1 -i 79 -a 1 -x {4.1 5.0 15 ------- null}
+ -t 0.06 -s 0 -d 1 -p cbr -e 210 -c 1 -i 80 -a 1 -x {0.0 1.0 16 ------- null}
- -t 0.06 -s 0 -d 1 -p cbr -e 210 -c 1 -i 80 -a 1 -x {0.0 1.0 16 ------- null}
h -t 0.06 -s 0 -d 1 -p cbr -e 210 -c 1 -i 80 -a 1 -x {0.0 1.0 -1 ------- null}
+ -t 0.06 -s 1 -d 2 -p cbr -e 210 -c 1 -i 81 -a 1 -x {1.1 2.0 16 ------- null}
- -t 0.06 -s 1 -d 2 -p cbr -e 210 -c 1 -i 81 -a 1 -x {1.1 2.0 16 ------- null}
h -t 0.06 -s 1 -d 2 -p cbr -e 210 -c 1 -i 81 -a 1 -x {1.1 2.0 -1 ------- null}
+ -t 0.06 -s 2 -d 3 -p cbr -e 210 -c 1 -i 82 -a 1 -x {2.1 3.0 16 ------- null}
- -t 0.06 -s 2 -d 3 -p cbr -e 210 -c 1 -i 82 -a 1 -x {2.1 3.0 16 ------- null}
h -t 0.06 -s 2 -d 3 -p cbr -e 210 -c 1 -i 82 -a 1 -x {2.1 3.0 -1 ------- null}
+ -t 0.06 -s 3 -d 4 -p cbr -e 210 -c 1 -i 83 -a 1 -x {3.1 4.0 16 ------- null}
- -t 0.06 -s 3 -d 4 -p cbr -e 210 -c 1 -i 83 -a 1 -x {3.1 4.0 16 ------- null}
h -t 0.06 -s 3 -d 4 -p cbr -e 210 -c 1 -i 83 -a 1 -x {3.1 4.0 -1 ------- null}
+ -t 0.06 -s 4 -d 5 -p cbr -e 210 -c 1 -i 84 -a 1 -x {4.1 5.0 16 ------- null}
- -t 0.06 -s 4 -d 5 -p cbr -e 210 -c 1 -i 84 -a 1 -x {4.1 5.0 16 ------- null}
h -t 0.06 -s 4 -d 5 -p cbr -e 210 -c 1 -i 84 -a 1 -x {4.1 5.0 -1 ------- null}
r -t 0.062336 -s 0 -d 1 -p cbr -e 210 -c 1 -i 80 -a 1 -x {0.0 1.0 16 ------- null}
r -t 0.062336 -s 1 -d 2 -p cbr -e 210 -c 1 -i 81 -a 1 -x {1.1 2.0 16 ------- null}
r -t 0.062336 -s 2 -d 3 -p cbr -e 210 -c 1 -i 82 -a 1 -x {2.1 3.0 16 ------- null}
r -t 0.062336 -s 3 -d 4 -p cbr -e 210 -c 1 -i 83 -a 1 -x {3.1 4.0 16 ------- null}
r -t 0.062336 -s 4 -d 5 -p cbr -e 210 -c 1 -i 84 -a 1 -x {4.1 5.0 16 ------- null}
+ -t 0.06375 -s 0 -d 1 -p cbr -e 210 -c 1 -i 85 -a 1 -x {0.0 1.0 17 ------- null}
- -t 0.06375 -s 0 -d 1 -p cbr -e 210 -c 1 -i 85 -a 1 -x {0.0 1.0 17 ------- null}
h -t 0.06375 -s 0 -d 1 -p cbr -e 210 -c 1 -i 85 -a 1 -x {0.0 1.0 -1 ------- null}
+ -t 0.06375 -s 1 -d 2 -p cbr -e 210 -c 1 -i 86 -a 1 -x {1.1 2.0 17 ------- null}
- -t 0.06375 -s 1 -d 2 -p cbr -e 210 -c 1 -i 86 -a 1 -x {1.1 2.0 17 ------- null}
h -t 0.06375 -s 1 -d 2 -p cbr -e 210 -c 1 -i 86 -a 1 -x {1.1 2.0 -1 ------- null}
+ -t 0.06375 -s 2 -d 3 -p cbr -e 210 -c 1 -i 87 -a 1 -x {2.1 3.0 17 ------- null}
- -t 0.06375 -s 2 -d 3 -p cbr -e 210 -c 1 -i 87 -a 1 -x {2.1 3.0 17 ------- null}
h -t 0.06375 -s 2 -d 3 -p cbr -e 210 -c 1 -i 87 -a 1 -x {2.1 3.0 -1 ------- null}
+ -t 0.06375 -s 3 -d 4 -p cbr -e 210 -c 1 -i 88 -a 1 -x {3.1 4.0 17 ------- null}
- -t 0.06375 -s 3 -d 4 -p cbr -e 210 -c 1 -i 88 -a 1 -x {3.1 4.0 17 ------- null}
h -t 0.06375 -s 3 -d 4 -p cbr -e 210 -c 1 -i 88 -a 1 -x {3.1 4.0 -1 ------- null}
+ -t 0.06375 -s 4 -d 5 -p cbr -e 210 -c 1 -i 89 -a 1 -x {4.1 5.0 17 ------- null}
- -t 0.06375 -s 4 -d 5 -p cbr -e 210 -c 1 -i 89 -a 1 -x {4.1 5.0 17 ------- null}
h -t 0.06375 -s 4 -d 5 -p cbr -e 210 -c 1 -i 89 -a 1 -x {4.1 5.0 -1 ------- null}
r -t 0.066086 -s 0 -d 1 -p cbr -e 210 -c 1 -i 85 -a 1 -x {0.0 1.0 17 ------- null}
r -t 0.066086 -s 1 -d 2 -p cbr -e 210 -c 1 -i 86 -a 1 -x {1.1 2.0 17 ------- null}
r -t 0.066086 -s 2 -d 3 -p cbr -e 210 -c 1 -i 87 -a 1 -x {2.1 3.0 17 ------- null}
r -t 0.066086 -s 3 -d 4 -p cbr -e 210 -c 1 -i 88 -a 1 -x {3.1 4.0 17 ------- null}
r -t 0.066086 -s 4 -d 5 -p cbr -e 210 -c 1 -i 89 -a 1 -x {4.1 5.0 17 ------- null}
+ -t 0.0675 -s 0 -d 1 -p cbr -e 210 -c 1 -i 90 -a 1 -x {0.0 1.0 18 ------- null}