+ 0 0 1 cbr 210 ------- 1 0.0 1.0 0 0
- 0 0 1 cbr 210 ------- 1 0.0 1.0 0 0
+ 0 1 2 cbr 210 ------- 1 1.1 2.0 0 1
- 0 1 2 cbr 210 ------- 1 1.1 2.0 0 1
+ 0 2 3 cbr 210 ------- 1 2.1 3.0 0 2
- 0 2 3 cbr 210 ------- 1 2.1 3.0 0 2
+ 0 3 4 cbr 210 ------- 1 3.1 4.0 0 3
- 0 3 4 cbr 210 ------- 1 3.1 4.0 0 3
+ 0 4 5 cbr 210 ------- 1 4.1 5.0 0 4
- 0 4 5 cbr 210 ------- 1 4.1 5.0 0 4
r 0.002336 0 1 cbr 210 ------- 1 0.0 1.0 0 0
r 0.002336 1 2 cbr 210 ------- 1 1.1 2.0 0 1
r 0.002336 2 3 cbr 210 ------- 1 2.1 3.0 0 2
r 0.002336 3 4 cbr 210 ------- 1 3.1 4.0 0 3
r 0.002336 4 5 cbr 210 ------- 1 4.1 5.0 0 4
+ 0.00375 0 1 cbr 210 ------- 1 0.0 1.0 1 5
- 0.00375 0 1 cbr 210 ------- 1 0.0 1.0 1 5
+ 0.00375 1 2 cbr 210 ------- 1 1.1 2.0 1 6
- 0.00375 1 2 cbr 210 ------- 1 1.1 2.0 1 6
+ 0.00375 2 3 cbr 210 ------- 1 2.1 3.0 1 7
- 0.00375 2 3 cbr 210 ------- 1 2.1 3.0 1 7
+ 0.00375 3 4 cbr 210 ------- 1 3.1 4.0 1 8
- 0.00375 3 4 cbr 210 ------- 1 3.1 4.0 1 8
+ 0.00375 4 5 cbr 210 ------- 1 4.1 5.0 1 9
- 0.00375 4 5 cbr 210 ------- 1 4.1 5.0 1 9
r 0.006086 0 1 cbr 210 ------- 1 0.0 1.0 1 5
r 0.006086 1 2 cbr 210 ------- 1 1.1 2.0 1 6
r 0.006086 2 3 cbr 210 ------- 1 2.1 3.0 1 7
r 0.006086 3 4 cbr 210 ------- 1 3.1 4.0 1 8
r 0.006086 4 5 cbr 210 ------- 1 4.1 5.0 1 9
+ 0.0075 0 1 cbr 210 ------- 1 0.0 1.0 2 10
- 0.0075 0 1 cbr 210 ------- 1 0.0 1.0 2 10
+ 0.0075 1 2 cbr 210 ------- 1 1.1 2.0 2 11
- 0.0075 1 2 cbr 210 ------- 1 1.1 2.0 2 11
+ 0.0075 2 3 cbr 210 ------- 1 2.1 3.0 2 12
- 0.0075 2 3 cbr 210 ------- 1 2.1 3.0 2 12
+ 0.0075 3 4 cbr 210 ------- 1 3.1 4.0 2 13
- 0.0075 3 4 cbr 210 ------- 1 3.1 4.0 2 13
+ 0.0075 4 5 cbr 210 ------- 1 4.1 5.0 2 14
- 0.0075 4 5 cbr 210 ------- 1 4.1 5.0 2 14
r 0.009836 0 1 cbr 210 ------- 1 0.0 1.0 2 10
r 0.009836 1 2 cbr 210 ------- 1 1.1 2.0 2 11
r 0.009836 2 3 cbr 210 ------- 1 2.1 3.0 2 12
r 0.009836 3 4 cbr 210 ------- 1 3.1 4.0 2 13
r 0.009836 4 5 cbr 210 ------- 1 4.1 5.0 2 14
+ 0.01125 0 1 cbr 210 ------- 1 0.0 1.0 3 15
- 0.01125 0 1 cbr 210 ------- 1 0.0 1.0 3 15
+ 0.01125 1 2 cbr 210 ------- 1 1.1 2.0 3 16
- 0.01125 1 2 cbr 210 ------- 1 1.1 2.0 3 16
+ 0.01125 2 3 cbr 210 ------- 1 2.1 3.0 3 17
- 0.01125 2 3 cbr 210 ------- 1 2.1 3.0 3 17
+ 0.01125 3 4 cbr 210 ------- 1 3.1 4.0 3 18
- 0.01125 3 4 cbr 210 ------- 1 3.1 4.0 3 18
+ 0.01125 4 5 cbr 210 ------- 1 4.1 5.0 3 19
- 0.01125 4 5 cbr 210 ------- 1 4.1 5.0 3 19
r 0.013586 0 1 cbr 210 ------- 1 0.0 1.0 3 15
r 0.013586 1 2 cbr 210 ------- 1 1.1 2.0 3 16
r 0.013586 2 3 cbr 210 ------- 1 2.1 3.0 3 17
r 0.013586 3 4 cbr 210 ------- 1 3.1 4.0 3 18
r 0.013586 4 5 cbr 210 ------- 1 4.1 5.0 3 19
+ 0.015 0 1 cbr 210 ------- 1 0.0 1.0 4 20
- 0.015 0 1 cbr 210 ------- 1 0.0 1.0 4 20
+ 0.015 1 2 cbr 210 ------- 1 1.1 2.0 4 21
- 0.015 1 2 cbr 210 ------- 1 1.1 2.0 4 21
+ 0.015 2 3 cbr 210 ------- 1 2.1 3.0 4 22
- 0.015 2 3 cbr 210 ------- 1 2.1 3.0 4 22
+ 0.015 3 4 cbr 210 ------- 1 3.1 4.0 4 23
- 0.015 3 4 cbr 210 ------- 1 3.1 4.0 4 23
+ 0.015 4 5 cbr 210 ------- 1 4.1 5.0 4 24
- 0.015 4 5 cbr 210 ------- 1 4.1 5.0 4 24
r 0.017336 0 1 cbr 210 ------- 1 0.0 1.0 4 20
r 0.017336 1 2 cbr 210 ------- 1 1.1 2.0 4 21
r 0.017336 2 3 cbr 210 ------- 1 2.1 3.0 4 22
r 0.017336 3 4 cbr 210 ------- 1 3.1 4.0 4 23
r 0.017336 4 5 cbr 210 ------- 1 4.1 5.0 4 24
+ 0.01875 0 1 cbr 210 ------- 1 0.0 1.0 5 25
- 0.01875 0 1 cbr 210 ------- 1 0.0 1.0 5 25
+ 0.01875 1 2 cbr 210 ------- 1 1.1 2.0 5 26
- 0.01875 1 2 cbr 210 ------- 1 1.1 2.0 5 26
+ 0.01875 2 3 cbr 210 ------- 1 2.1 3.0 5 27
- 0.01875 2 3 cbr 210 ------- 1 2.1 3.0 5 27
+ 0.01875 3 4 cbr 210 ------- 1 3.1 4.0 5 28
- 0.01875 3 4 cbr 210 ------- 1 3.1 4.0 5 28
+ 0.01875 4 5 cbr 210 ------- 1 4.1 5.0 5 29
- 0.01875 4 5 cbr 210 ------- 1 4.1 5.0 5 29
r 0.021086 0 1 cbr 210 ------- 1 0.0 1.0 5 25
r 0.021086 1 2 cbr 210 ------- 1 1.1 2.0 5 26
r 0.021086 2 3 cbr 210 ------- 1 2.1 3.0 5 27
r 0.021086 3 4 cbr 210 ------- 1 3.1 4.0 5 28
r 0.021086 4 5 cbr 210 ------- 1 4.1 5.0 5 29
+ 0.0225 0 1 cbr 210 ------- 1 0.0 1.0 6 30
- 0.0225 0 1 cbr 210 ------- 1 0.0 1.0 6 30
+ 0.0225 1 2 cbr 210 ------- 1 1.1 2.0 6 31
- 0.0225 1 2 cbr 210 ------- 1 1.1 2.0 6 31
+ 0.0225 2 3 cbr 210 ------- 1 2.1 3.0 6 32
- 0.0225 2 3 cbr 210 ------- 1 2.1 3.0 6 32
+ 0.0225 3 4 cbr 210 ------- 1 3.1 4.0 6 33
- 0.0225 3 4 cbr 210 ------- 1 3.1 4.0 6 33
+ 0.0225 4 5 cbr 210 ------- 1 4.1 5.0 6 34
- 0.0225 4 5 cbr 210 ------- 1 4.1 5.0 6 34
r 0.024836 0 1 cbr 210 ------- 1 0.0 1.0 6 30
r 0.024836 1 2 cbr 210 ------- 1 1.1 2.0 6 31
r 0.024836 2 3 cbr 210 ------- 1 2.1 3.0 6 32
r 0.024836 3 4 cbr 210 ------- 1 3.1 4.0 6 33
r 0.024836 4 5 cbr 210 ------- 1 4.1 5.0 6 34
+ 0.02625 0 1 cbr 210 ------- 1 0.0 1.0 7 35
- 0.02625 0 1 cbr 210 ------- 1 0.0 1.0 7 35
+ 0.02625 1 2 cbr 210 ------- 1 1.1 2.0 7 36
- 0.02625 1 2 cbr 210 ------- 1 1.1 2.0 7 36
+ 0.02625 2 3 cbr 210 ------- 1 2.1 3.0 7 37
- 0.02625 2 3 cbr 210 ------- 1 2.1 3.0 7 37
+ 0.02625 3 4 cbr 210 ------- 1 3.1 4.0 7 38
- 0.02625 3 4 cbr 210 ------- 1 3.1 4.0 7 38
+ 0.02625 4 5 cbr 210 ------- 1 4.1 5.0 7 39
- 0.02625 4 5 cbr 210 ------- 1 4.1 5.0 7 39
r 0.028586 0 1 cbr 210 ------- 1 0.0 1.0 7 35
r 0.028586 1 2 cbr 210 ------- 1 1.1 2.0 7 36
r 0.028586 2 3 cbr 210 ------- 1 2.1 3.0 7 37
r 0.028586 3 4 cbr 210 ------- 1 3.1 4.0 7 38
r 0.028586 4 5 cbr 210 ------- 1 4.1 5.0 7 39
+ 0.03 0 1 cbr 210 ------- 1 0.0 1.0 8 40
- 0.03 0 1 cbr 210 ------- 1 0.0 1.0 8 40
+ 0.03 1 2 cbr 210 ------- 1 1.1 2.0 8 41
- 0.03 1 2 cbr 210 ------- 1 1.1 2.0 8 41
+ 0.03 2 3 cbr 210 ------- 1 2.1 3.0 8 42
- 0.03 2 3 cbr 210 ------- 1 2.1 3.0 8 42
+ 0.03 3 4 cbr 210 ------- 1 3.1 4.0 8 43
- 0.03 3 4 cbr 210 ------- 1 3.1 4.0 8 43
+ 0.03 4 5 cbr 210 ------- 1 4.1 5.0 8 44
- 0.03 4 5 cbr 210 ------- 1 4.1 5.0 8 44
r 0.032336 0 1 cbr 210 ------- 1 0.0 1.0 8 40
r 0.032336 1 2 cbr 210 ------- 1 1.1 2.0 8 41
r 0.032336 2 3 cbr 210 ------- 1 2.1 3.0 8 42
r 0.032336 3 4 cbr 210 ------- 1 3.1 4.0 8 43
r 0.032336 4 5 cbr 210 ------- 1 4.1 5.0 8 44
+ 0.03375 0 1 cbr 210 ------- 1 0.0 1.0 9 45
- 0.03375 0 1 cbr 210 ------- 1 0.0 1.0 9 45
+ 0.03375 1 2 cbr 210 ------- 1 1.1 2.0 9 46
- 0.03375 1 2 cbr 210 ------- 1 1.1 2.0 9 46
+ 0.03375 2 3 cbr 210 ------- 1 2.1 3.0 9 47
- 0.03375 2 3 cbr 210 ------- 1 2.1 3.0 9 47
+ 0.03375 3 4 cbr 210 ------- 1 3.1 4.0 9 48
- 0.03375 3 4 cbr 210 ------- 1 3.1 4.0 9 48
+ 0.03375 4 5 cbr 210 ------- 1 4.1 5.0 9 49
- 0.03375 4 5 cbr 210 ------- 1 4.1 5.0 9 49
r 0.036086 0 1 cbr 210 ------- 1 0.0 1.0 9 45
r 0.036086 1 2 cbr 210 ------- 1 1.1 2.0 9 46
r 0.036086 2 3 cbr 210 ------- 1 2.1 3.0 9 47
r 0.036086 3 4 cbr 210 ------- 1 3.1 4.0 9 48
r 0.036086 4 5 cbr 210 ------- 1 4.1 5.0 9 49
+ 0.0375 0 1 cbr 210 ------- 1 0.0 1.0 10 50
- 0.0375 0 1 cbr 210 ------- 1 0.0 1.0 10 50
+ 0.0375 1 2 cbr 210 ------- 1 1.1 2.0 10 51
- 0.0375 1 2 cbr 210 ------- 1 1.1 2.0 10 51
+ 0.0375 2 3 cbr 210 ------- 1 2.1 3.0 10 52
- 0.0375 2 3 cbr 210 ------- 1 2.1 3.0 10 52
+ 0.0375 3 4 cbr 210 ------- 1 3.1 4.0 10 53
- 0.0375 3 4 cbr 210 ------- 1 3.1 4.0 10 53
+ 0.0375 4 5 cbr 210 ------- 1 4.1 5.0 10 54
- 0.0375 4 5 cbr 210 ------- 1 4.1 5.0 10 54
r 0.039836 0 1 cbr 210 ------- 1 0.0 1.0 10 50
r 0.039836 1 2 cbr 210 ------- 1 1.1 2.0 10 51
r 0.039836 2 3 cbr 210 ------- 1 2.1 3.0 10 52
r 0.039836 3 4 cbr 210 ------- 1 3.1 4.0 10 53
r 0.039836 4 5 cbr 210 ------- 1 4.1 5.0 10 54
+ 0.04125 0 1 cbr 210 ------- 1 0.0 1.0 11 55
- 0.04125 0 1 cbr 210 ------- 1 0.0 1.0 11 55
+ 0.04125 1 2 cbr 210 ------- 1 1.1 2.0 11 56
- 0.04125 1 2 cbr 210 ------- 1 1.1 2.0 11 56
+ 0.04125 2 3 cbr 210 ------- 1 2.1 3.0 11 57
- 0.04125 2 3 cbr 210 ------- 1 2.1 3.0 11 57
+ 0.04125 3 4 cbr 210 ------- 1 3.1 4.0 11 58
- 0.04125 3 4 cbr 210 ------- 1 3.1 4.0 11 58
+ 0.04125 4 5 cbr 210 ------- 1 4.1 5.0 11 59
- 0.04125 4 5 cbr 210 ------- 1 4.1 5.0 11 59
r 0.043586 0 1 cbr 210 ------- 1 0.0 1.0 11 55
r 0.043586 1 2 cbr 210 ------- 1 1.1 2.0 11 56
r 0.043586 2 3 cbr 210 ------- 1 2.1 3.0 11 57
r 0.043586 3 4 cbr 210 ------- 1 3.1 4.0 11 58
r 0.043586 4 5 cbr 210 ------- 1 4.1 5.0 11 59
+ 0.045 0 1 cbr 210 ------- 1 0.0 1.0 12 60
- 0.045 0 1 cbr 210 ------- 1 0.0 1.0 12 60
+ 0.045 1 2 cbr 210 ------- 1 1.1 2.0 12 61
- 0.045 1 2 cbr 210 ------- 1 1.1 2.0 12 61
+ 0.045 2 3 cbr 210 ------- 1 2.1 3.0 12 62
- 0.045 2 3 cbr 210 ------- 1 2.1 3.0 12 62
+ 0.045 3 4 cbr 210 ------- 1 3.1 4.0 12 63
- 0.045 3 4 cbr 210 ------- 1 3.1 4.0 12 63
+ 0.045 4 5 cbr 210 ------- 1 4.1 5.0 12 64
- 0.045 4 5 cbr 210 ------- 1 4.1 5.0 12 64
r 0.047336 0 1 cbr 210 ------- 1 0.0 1.0 12 60
r 0.047336 1 2 cbr 210 ------- 1 1.1 2.0 12 61
r 0.047336 2 3 cbr 210 ------- 1 2.1 3.0 12 62
r 0.047336 3 4 cbr 210 ------- 1 3.1 4.0 12 63
r 0.047336 4 5 cbr 210 ------- 1 4.1 5.0 12 64
+ 0.04875 0 1 cbr 210 ------- 1 0.0 1.0 13 65
- 0.04875 0 1 cbr 210 ------- 1 0.0 1.0 13 65
+ 0.04875 1 2 cbr 210 ------- 1 1.1 2.0 13 66
- 0.04875 1 2 cbr 210 ------- 1 1.1 2.0 13 66
+ 0.04875 2 3 cbr 210 ------- 1 2.1 3.0 13 67
- 0.04875 2 3 cbr 210 ------- 1 2.1 3.0 13 67
+ 0.04875 3 4 cbr 210 ------- 1 3.1 4.0 13 68
- 0.04875 3 4 cbr 210 ------- 1 3.1 4.0 13 68
+ 0.04875 4 5 cbr 210 ------- 1 4.1 5.0 13 69
- 0.04875 4 5 cbr 210 ------- 1 4.1 5.0 13 69
r 0.051086 0 1 cbr 210 ------- 1 0.0 1.0 13 65
r 0.051086 1 2 cbr 210 ------- 1 1.1 2.0 13 66
r 0.051086 2 3 cbr 210 ------- 1 2.1 3.0 13 67
r 0.051086 3 4 cbr 210 ------- 1 3.1 4.0 13 68
r 0.051086 4 5 cbr 210 ------- 1 4.1 5.0 13 69
+ 0.0525 0 1 cbr 210 ------- 1 0.0 1.0 14 70
- 0.0525 0 1 cbr 210 ------- 1 0.0 1.0 14 70
+ 0.0525 1 2 cbr 210 ------- 1 1.1 2.0 14 71
- 0.0525 1 2 cbr 210 ------- 1 1.1 2.0 14 71
+ 0.0525 2 3 cbr 210 ------- 1 2.1 3.0 14 72
- 0.0525 2 3 cbr 210 ------- 1 2.1 3.0 14 72
+ 0.0525 3 4 cbr 210 ------- 1 3.1 4.0 14 73
- 0.0525 3 4 cbr 210 ------- 1 3.1 4.0 14 73
+ 0.0525 4 5 cbr 210 ------- 1 4.1 5.0 14 74
- 0.0525 4 5 cbr 210 ------- 1 4.1 5.0 14 74
r 0.054836 0 1 cbr 210 ------- 1 0.0 1.0 14 70
r 0.054836 1 2 cbr 210 ------- 1 1.1 2.0 14 71
r 0.054836 2 3 cbr 210 ------- 1 2.1 3.0 14 72
r 0.054836 3 4 cbr 210 ------- 1 3.1 4.0 14 73
r 0.054836 4 5 cbr 210 ------- 1 4.1 5.0 14 74
+ 0.05625 0 1 cbr 210 ------- 1 0.0 1.0 15 75
- 0.05625 0 1 cbr 210 ------- 1 0.0 1.0 15 75
+ 0.05625 1 2 cbr 210 ------- 1 1.1 2.0 15 76
- 0.05625 1 2 cbr 210 ------- 1 1.1 2.0 15 76
+ 0.05625 2 3 cbr 210 ------- 1 2.1 3.0 15 77
- 0.05625 2 3 cbr 210 ------- 1 2.1 3.0 15 77
+ 0.05625 3 4 cbr 210 ------- 1 3.1 4.0 15 78
- 0.05625 3 4 cbr 210 ------- 1 3.1 4.0 15 78
+ 0.05625 4 5 cbr 210 ------- 1 4.1 5.0 15 79
- 0.05625 4 5 cbr 210 ------- 1 4.1 5.0 15 79
r 0.058586 0 1 cbr 210 ------- 1 0.0 1.0 15 75
r 0.058586 1 2 cbr 210 ------- 1 1.1 2.0 15 76
r 0.058586 2 3 cbr 210 ------- 1 2.1 3.0 15 77
r 0.058586 3 4 cbr 210 ------- 1 3.1 4.0 15 78
r 0.058586 4 5 cbr 210 ------- 1 4.1 5.0 15 79
+ 0.06 0 1 cbr 210 ------- 1 0.0 1.0 16 80
- 0.06 0 1 cbr 210 ------- 1 0.0 1.0 16 80
+ 0.06 1 2 cbr 210 ------- 1 1.1 2.0 16 81
- 0.06 1 2 cbr 210 ------- 1 1.1 2.0 16 81
+ 0.06 2 3 cbr 210 ------- 1 2.1 3.0 16 82
- 0.06 2 3 cbr 210 ------- 1 2.1 3.0 16 82
+ 0.06 3 4 cbr 210 ------- 1 3.1 4.0 16 83
- 0.06 3 4 cbr 210 ------- 1 3.1 4.0 16 83
+ 0.06 4 5 cbr 210 ------- 1 4.1 5.0 16 84
- 0.06 4 5 cbr 210 ------- 1 4.1 5.0 16 84
r 0.062336 0 1 cbr 210 ------- 1 0.0 1.0 16 80
r 0.062336 1 2 cbr 210 ------- 1 1.1 2.0 16 81
r 0.062336 2 3 cbr 210 ------- 1 2.1 3.0 16 82
r 0.062336 3 4 cbr 210 ------- 1 3.1 4.0 16 83
r 0.062336 4 5 cbr 210 ------- 1 4.1 5.0 16 84
+ 0.06375 0 1 cbr 210 ------- 1 0.0 1.0 17 85
- 0.06375 0 1 cbr 210 ------- 1 0.0 1.0 17 85
+ 0.06375 1 2 cbr 210 ------- 1 1.1 2.0 17 86
- 0.06375 1 2 cbr 210 ------- 1 1.1 2.0 17 86
+ 0.06375 2 3 cbr 210 ------- 1 2.1 3.0 17 87
- 0.06375 2 3 cbr 210 ------- 1 2.1 3.0 17 87
+ 0.06375 3 4 cbr 210 ------- 1 3.1 4.0 17 88
- 0.06375 3 4 cbr 210 ------- 1 3.1 4.0 17 88
+ 0.06375 4 5 cbr 210 ------- 1 4.1 5.0 17 89
- 0.06375 4 5 cbr 210 ------- 1 4.1 5.0 17 89
r 0.066086 0 1 cbr 210 ------- 1 0.0 1.0 17 85
r 0.066086 1 2 cbr 210 ------- 1 1.1 2.0 17 86
r 0.066086 2 3 cbr 210 ------- 1 2.1 3.0 17 87
r 0.066086 3 4 cbr 210 ------- 1 3.1 4.0 17 88
r 0.066086 4 5 cbr 210 ------- 1 4.1 5.0 17 89
+ 0.0675 0 1 cbr 210 ------- 1 0.0 1.0 18 90
- 0.0675 0 1 cbr 210 ------- 1 0.0 1.0 18 90
+ 0.0675 1 2 cbr 210 ------- 1 1.1 2.0 18 91
- 0.0675 1 2 cbr 210 ------- 1 1.1 2.0 18 91
+ 0.0675 2 3 cbr 210 ------- 1 2.1 3.0 18 92
- 0.0675 2 3 cbr 210 ------- 1 2.1 3.0 18 92
+ 0.0675 3 4 cbr 210 ------- 1 3.1 4.0 18 93
- 0.0675 3 4 cbr 210 ------- 1 3.1 4.0 18 93
+ 0.0675 4 5 cbr 210 ------- 1 4.1 5.0 18 94
- 0.0675 4 5 cbr 210 ------- 1 4.1 5.0 18 94
r 0.069836 0 1 cbr 210 ------- 1 0.0 1.0 18 90
r 0.069836 1 2 cbr 210 ------- 1 1.1 2.0 18 91
r 0.069836 2 3 cbr 210 ------- 1 2.1 3.0 18 92
r 0.069836 3 4 cbr 210 ------- 1 3.1 4.0 18 93
r 0.069836 4 5 cbr 210 ------- 1 4.1 5.0 18 94
+ 0.07125 0 1 cbr 210 ------- 1 0.0 1.0 19 95
- 0.07125 0 1 cbr 210 ------- 1 0.0 1.0 19 95
+ 0.07125 1 2 cbr 210 ------- 1 1.1 2.0 19 96
- 0.07125 1 2 cbr 210 ------- 1 1.1 2.0 19 96
+ 0.07125 2 3 cbr 210 ------- 1 2.1 3.0 19 97
- 0.07125 2 3 cbr 210 ------- 1 2.1 3.0 19 97
+ 0.07125 3 4 cbr 210 ------- 1 3.1 4.0 19 98
- 0.07125 3 4 cbr 210 ------- 1 3.1 4.0 19 98
+ 0.07125 4 5 cbr 210 ------- 1 4.1 5.0 19 99
- 0.07125 4 5 cbr 210 ------- 1 4.1 5.0 19 99
r 0.073586 0 1 cbr 210 ------- 1 0.0 1.0 19 95
r 0.073586 1 2 cbr 210 ------- 1 1.1 2.0 19 96
r 0.073586 2 3 cbr 210 ------- 1 2.1 3.0 19 97
r 0.073586 3 4 cbr 210 ------- 1 3.1 4.0 19 98
r 0.073586 4 5 cbr 210 ------- 1 4.1 5.0 19 99
+ 0.075 0 1 cbr 210 ------- 1 0.0 1.0 20 100
- 0.075 0 1 cbr 210 ------- 1 0.0 1.0 20 100
+ 0.075 1 2 cbr 210 ------- 1 1.1 2.0 20 101
- 0.075 1 2 cbr 210 ------- 1 1.1 2.0 20 101
+ 0.075 2 3 cbr 210 ------- 1 2.1 3.0 20 102
- 0.075 2 3 cbr 210 ------- 1 2.1 3.0 20 102
+ 0.075 3 4 cbr 210 ------- 1 3.1 4.0 20 103
- 0.075 3 4 cbr 210 ------- 1 3.1 4.0 20 103
+ 0.075 4 5 cbr 210 ------- 1 4.1 5.0 20 104
- 0.075 4 5 cbr 210 ------- 1 4.1 5.0 20 104
r 0.077336 0 1 cbr 210 ------- 1 0.0 1.0 20 100
r 0.077336 1 2 cbr 210 ------- 1 1.1 2.0 20 101
r 0.077336 2 3 cbr 210 ------- 1 2.1 3.0 20 102
r 0.077336 3 4 cbr 210 ------- 1 3.1 4.0 20 103
r 0.077336 4 5 cbr 210 ------- 1 4.1 5.0 20 104
+ 0.07875 0 1 cbr 210 ------- 1 0.0 1.0 21 105
- 0.07875 0 1 cbr 210 ------- 1 0.0 1.0 21 105
+ 0.07875 1 2 cbr 210 ------- 1 1.1 2.0 21 106
- 0.07875 1 2 cbr 210 ------- 1 1.1 2.0 21 106
+ 0.07875 2 3 cbr 210 ------- 1 2.1 3.0 21 107
- 0.07875 2 3 cbr 210 ------- 1 2.1 3.0 21 107
+ 0.07875 3 4 cbr 210 ------- 1 3.1 4.0 21 108
- 0.07875 3 4 cbr 210 ------- 1 3.1 4.0 21 108
+ 0.07875 4 5 cbr 210 ------- 1 4.1 5.0 21 109
- 0.07875 4 5 cbr 210 ------- 1 4.1 5.0 21 109
r 0.081086 0 1 cbr 210 ------- 1 0.0 1.0 21 105
r 0.081086 1 2 cbr 210 ------- 1 1.1 2.0 21 106
r 0.081086 2 3 cbr 210 ------- 1 2.1 3.0 21 107
r 0.081086 3 4 cbr 210 ------- 1 3.1 4.0 21 108
r 0.081086 4 5 cbr 210 ------- 1 4.1 5.0 21 109
+ 0.0825 0 1 cbr 210 ------- 1 0.0 1.0 22 110
- 0.0825 0 1 cbr 210 ------- 1 0.0 1.0 22 110
+ 0.0825 1 2 cbr 210 ------- 1 1.1 2.0 22 111
- 0.0825 1 2 cbr 210 ------- 1 1.1 2.0 22 111
+ 0.0825 2 3 cbr 210 ------- 1 2.1 3.0 22 112
- 0.0825 2 3 cbr 210 ------- 1 2.1 3.0 22 112
+ 0.0825 3 4 cbr 210 ------- 1 3.1 4.0 22 113
- 0.0825 3 4 cbr 210 ------- 1 3.1 4.0 22 113
+ 0.0825 4 5 cbr 210 ------- 1 4.1 5.0 22 114
- 0.0825 4 5 cbr 210 ------- 1 4.1 5.0 22 114
r 0.084836 0 1 cbr 210 ------- 1 0.0 1.0 22 110
r 0.084836 1 2 cbr 210 ------- 1 1.1 2.0 22 111
r 0.084836 2 3 cbr 210 ------- 1 2.1 3.0 22 112
r 0.084836 3 4 cbr 210 ------- 1 3.1 4.0 22 113
r 0.084836 4 5 cbr 210 ------- 1 4.1 5.0 22 114
+ 0.08625 0 1 cbr 210 ------- 1 0.0 1.0 23 115
- 0.08625 0 1 cbr 210 ------- 1 0.0 1.0 23 115
+ 0.08625 1 2 cbr 210 ------- 1 1.1 2.0 23 116
- 0.08625 1 2 cbr 210 ------- 1 1.1 2.0 23 116
+ 0.08625 2 3 cbr 210 ------- 1 2.1 3.0 23 117
- 0.08625 2 3 cbr 210 ------- 1 2.1 3.0 23 117
+ 0.08625 3 4 cbr 210 ------- 1 3.1 4.0 23 118
- 0.08625 3 4 cbr 210 ------- 1 3.1 4.0 23 118
+ 0.08625 4 5 cbr 210 ------- 1 4.1 5.0 23 119
- 0.08625 4 5 cbr 210 ------- 1 4.1 5.0 23 119
r 0.088586 0 1 cbr 210 ------- 1 0.0 1.0 23 115
r 0.088586 1 2 cbr 210 ------- 1 1.1 2.0 23 116
r 0.088586 2 3 cbr 210 ------- 1 2.1 3.0 23 117
r 0.088586 3 4 cbr 210 ------- 1 3.1 4.0 23 118
r 0.088586 4 5 cbr 210 ------- 1 4.1 5.0 23 119
+ 0.09 0 1 cbr 210 ------- 1 0.0 1.0 24 120
- 0.09 0 1 cbr 210 ------- 1 0.0 1.0 24 120
+ 0.09 1 2 cbr 210 ------- 1 1.1 2.0 24 121
- 0.09 1 2 cbr 210 ------- 1 1.1 2.0 24 121
+ 0.09 2 3 cbr 210 ------- 1 2.1 3.0 24 122
- 0.09 2 3 cbr 210 ------- 1 2.1 3.0 24 122
+ 0.09 3 4 cbr 210 ------- 1 3.1 4.0 24 123
- 0.09 3 4 cbr 210 ------- 1 3.1 4.0 24 123
+ 0.09 4 5 cbr 210 ------- 1 4.1 5.0 24 124
- 0.09 4 5 cbr 210 ------- 1 4.1 5.0 24 124
r 0.092336 0 1 cbr 210 ------- 1 0.0 1.0 24 120
r 0.092336 1 2 cbr 210 ------- 1 1.1 2.0 24 121
r 0.092336 2 3 cbr 210 ------- 1 2.1 3.0 24 122
r 0.092336 3 4 cbr 210 ------- 1 3.1 4.0 24 123
r 0.092336 4 5 cbr 210 ------- 1 4.1 5.0 24 124
+ 0.09375 0 1 cbr 210 ------- 1 0.0 1.0 25 125
- 0.09375 0 1 cbr 210 ------- 1 0.0 1.0 25 125
+ 0.09375 1 2 cbr 210 ------- 1 1.1 2.0 25 126
- 0.09375 1 2 cbr 210 ------- 1 1.1 2.0 25 126
+ 0.09375 2 3 cbr 210 ------- 1 2.1 3.0 25 127
- 0.09375 2 3 cbr 210 ------- 1 2.1 3.0 25 127
+ 0.09375 3 4 cbr 210 ------- 1 3.1 4.0 25 128
- 0.09375 3 4 cbr 210 ------- 1 3.1 4.0 25 128
+ 0.09375 4 5 cbr 210 ------- 1 4.1 5.0 25 129
- 0.09375 4 5 cbr 210 ------- 1 4.1 5.0 25 129
r 0.096086 0 1 cbr 210 ------- 1 0.0 1.0 25 125
r 0.096086 1 2 cbr 210 ------- 1 1.1 2.0 25 126
r 0.096086 2 3 cbr 210 ------- 1 2.1 3.0 25 127
r 0.096086 3 4 cbr 210 ------- 1 3.1 4.0 25 128
r 0.096086 4 5 cbr 210 ------- 1 4.1 5.0 25 129
+ 0.0975 0 1 cbr 210 ------- 1 0.0 1.0 26 130
- 0.0975 0 1 cbr 210 ------- 1 0.0 1.0 26 130
+ 0.0975 1 2 cbr 210 ------- 1 1.1 2.0 26 131
- 0.0975 1 2 cbr 210 ------- 1 1.1 2.0 26 131
+ 0.0975 2 3 cbr 210 ------- 1 2.1 3.0 26 132
- 0.0975 2 3 cbr 210 ------- 1 2.1 3.0 26 132
+ 0.0975 3 4 cbr 210 ------- 1 3.1 4.0 26 133
- 0.0975 3 4 cbr 210 ------- 1 3.1 4.0 26 133
+ 0.0975 4 5 cbr 210 ------- 1 4.1 5.0 26 134
- 0.0975 4 5 cbr 210 ------- 1 4.1 5.0 26 134
r 0.099836 0 1 cbr 210 ------- 1 0.0 1.0 26 130
r 0.099836 1 2 cbr 210 ------- 1 1.1 2.0 26 131
r 0.099836 2 3 cbr 210 ------- 1 2.1 3.0 26 132
r 0.099836 3 4 cbr 210 ------- 1 3.1 4.0 26 133
r 0.099836 4 5 cbr 210 ------- 1 4.1 5.0 26 134
+ 0.10125 0 1 cbr 210 ------- 1 0.0 1.0 27 135
- 0.10125 0 1 cbr 210 ------- 1 0.0 1.0 27 135
+ 0.10125 1 2 cbr 210 ------- 1 1.1 2.0 27 136
- 0.10125 1 2 cbr 210 ------- 1 1.1 2.0 27 136
+ 0.10125 2 3 cbr 210 ------- 1 2.1 3.0 27 137
- 0.10125 2 3 cbr 210 ------- 1 2.1 3.0 27 137
+ 0.10125 3 4 cbr 210 ------- 1 3.1 4.0 27 138
- 0.10125 3 4 cbr 210 ------- 1 3.1 4.0 27 138
+ 0.10125 4 5 cbr 210 ------- 1 4.1 5.0 27 139
- 0.10125 4 5 cbr 210 ------- 1 4.1 5.0 27 139
r 0.103586 0 1 cbr 210 ------- 1 0.0 1.0 27 135
r 0.103586 1 2 cbr 210 ------- 1 1.1 2.0 27 136
r 0.103586 2 3 cbr 210 ------- 1 2.1 3.0 27 137
r 0.103586 3 4 cbr 210 ------- 1 3.1 4.0 27 138
r 0.103586 4 5 cbr 210 ------- 1 4.1 5.0 27 139
+ 0.105 0 1 cbr 210 ------- 1 0.0 1.0 28 140
- 0.105 0 1 cbr 210 ------- 1 0.0 1.0 28 140
+ 0.105 1 2 cbr 210 ------- 1 1.1 2.0 28 141
- 0.105 1 2 cbr 210 ------- 1 1.1 2.0 28 141
+ 0.105 2 3 cbr 210 ------- 1 2.1 3.0 28 142
- 0.105 2 3 cbr 210 ------- 1 2.1 3.0 28 142
+ 0.105 3 4 cbr 210 ------- 1 3.1 4.0 28 143
- 0.105 3 4 cbr 210 ------- 1 3.1 4.0 28 143
+ 0.105 4 5 cbr 210 ------- 1 4.1 5.0 28 144
- 0.105 4 5 cbr 210 ------- 1 4.1 5.0 28 144
r 0.107336 0 1 cbr 210 ------- 1 0.0 1.0 28 140
r 0.107336 1 2 cbr 210 ------- 1 1.1 2.0 28 141
r 0.107336 2 3 cbr 210 ------- 1 2.1 3.0 28 142
r 0.107336 3 4 cbr 210 ------- 1 3.1 4.0 28 143
r 0.107336 4 5 cbr 210 ------- 1 4.1 5.0 28 144
+ 0.10875 0 1 cbr 210 ------- 1 0.0 1.0 29 145
- 0.10875 0 1 cbr 210 ------- 1 0.0 1.0 29 145
+ 0.10875 1 2 cbr 210 ------- 1 1.1 2.0 29 146
- 0.10875 1 2 cbr 210 ------- 1 1.1 2.0 29 146
+ 0.10875 2 3 cbr 210 ------- 1 2.1 3.0 29 147
- 0.10875 2 3 cbr 210 ------- 1 2.1 3.0 29 147
+ 0.10875 3 4 cbr 210 ------- 1 3.1 4.0 29 148
- 0.10875 3 4 cbr 210 ------- 1 3.1 4.0 29 148
+ 0.10875 4 5 cbr 210 ------- 1 4.1 5.0 29 149
- 0.10875 4 5 cbr 210 ------- 1 4.1 5.0 29 149
r 0.111086 0 1 cbr 210 ------- 1 0.0 1.0 29 145
r 0.111086 1 2 cbr 210 ------- 1 1.1 2.0 29 146
r 0.111086 2 3 cbr 210 ------- 1 2.1 3.0 29 147
r 0.111086 3 4 cbr 210 ------- 1 3.1 4.0 29 148
r 0.111086 4 5 cbr 210 ------- 1 4.1 5.0 29 149
+ 0.1125 0 1 cbr 210 ------- 1 0.0 1.0 30 150
- 0.1125 0 1 cbr 210 ------- 1 0.0 1.0 30 150
+ 0.1125 1 2 cbr 210 ------- 1 1.1 2.0 30 151
- 0.1125 1 2 cbr 210 ------- 1 1.1 2.0 30 151
+ 0.1125 2 3 cbr 210 ------- 1 2.1 3.0 30 152
- 0.1125 2 3 cbr 210 ------- 1 2.1 3.0 30 152
+ 0.1125 3 4 cbr 210 ------- 1 3.1 4.0 30 153
- 0.1125 3 4 cbr 210 ------- 1 3.1 4.0 30 153
+ 0.1125 4 5 cbr 210 ------- 1 4.1 5.0 30 154
- 0.1125 4 5 cbr 210 ------- 1 4.1 5.0 30 154
r 0.114836 0 1 cbr 210 ------- 1 0.0 1.0 30 150
r 0.114836 1 2 cbr 210 ------- 1 1.1 2.0 30 151
r 0.114836 2 3 cbr 210 ------- 1 2.1 3.0 30 152
r 0.114836 3 4 cbr 210 ------- 1 3.1 4.0 30 153
r 0.114836 4 5 cbr 210 ------- 1 4.1 5.0 30 154
+ 0.11625 0 1 cbr 210 ------- 1 0.0 1.0 31 155
- 0.11625 0 1 cbr 210 ------- 1 0.0 1.0 31 155
+ 0.11625 1 2 cbr 210 ------- 1 1.1 2.0 31 156
- 0.11625 1 2 cbr 210 ------- 1 1.1 2.0 31 156
+ 0.11625 2 3 cbr 210 ------- 1 2.1 3.0 31 157
- 0.11625 2 3 cbr 210 ------- 1 2.1 3.0 31 157
+ 0.11625 3 4 cbr 210 ------- 1 3.1 4.0 31 158
- 0.11625 3 4 cbr 210 ------- 1 3.1 4.0 31 158
+ 0.11625 4 5 cbr 210 ------- 1 4.1 5.0 31 159
- 0.11625 4 5 cbr 210 ------- 1 4.1 5.0 31 159
r 0.118586 0 1 cbr 210 ------- 1 0.0 1.0 31 155
r 0.118586 1 2 cbr 210 ------- 1 1.1 2.0 31 156
r 0.118586 2 3 cbr 210 ------- 1 2.1 3.0 31 157
r 0.118586 3 4 cbr 210 ------- 1 3.1 4.0 31 158
r 0.118586 4 5 cbr 210 ------- 1 4.1 5.0 31 159
+ 0.12 0 1 cbr 210 ------- 1 0.0 1.0 32 160
- 0.12 0 1 cbr 210 ------- 1 0.0 1.0 32 160
+ 0.12 1 2 cbr 210 ------- 1 1.1 2.0 32 161
- 0.12 1 2 cbr 210 ------- 1 1.1 2.0 32 161
+ 0.12 2 3 cbr 210 ------- 1 2.1 3.0 32 162
- 0.12 2 3 cbr 210 ------- 1 2.1 3.0 32 162
+ 0.12 3 4 cbr 210 ------- 1 3.1 4.0 32 163
- 0.12 3 4 cbr 210 ------- 1 3.1 4.0 32 163
+ 0.12 4 5 cbr 210 ------- 1 4.1 5.0 32 164
- 0.12 4 5 cbr 210 ------- 1 4.1 5.0 32 164
r 0.122336 0 1 cbr 210 ------- 1 0.0 1.0 32 160
r 0.122336 1 2 cbr 210 ------- 1 1.1 2.0 32 161
r 0.122336 2 3 cbr 210 ------- 1 2.1 3.0 32 162
r 0.122336 3 4 cbr 210 ------- 1 3.1 4.0 32 163
r 0.122336 4 5 cbr 210 ------- 1 4.1 5.0 32 164
+ 0.12375 0 1 cbr 210 ------- 1 0.0 1.0 33 165
- 0.12375 0 1 cbr 210 ------- 1 0.0 1.0 33 165
+ 0.12375 1 2 cbr 210 ------- 1 1.1 2.0 33 166
- 0.12375 1 2 cbr 210 ------- 1 1.1 2.0 33 166
+ 0.12375 2 3 cbr 210 ------- 1 2.1 3.0 33 167
- 0.12375 2 3 cbr 210 ------- 1 2.1 3.0 33 167
+ 0.12375 3 4 cbr 210 ------- 1 3.1 4.0 33 168
- 0.12375 3 4 cbr 210 ------- 1 3.1 4.0 33 168
+ 0.12375 4 5 cbr 210 ------- 1 4.1 5.0 33 169
- 0.12375 4 5 cbr 210 ------- 1 4.1 5.0 33 169
r 0.126086 0 1 cbr 210 ------- 1 0.0 1.0 33 165
r 0.126086 1 2 cbr 210 ------- 1 1.1 2.0 33 166
r 0.126086 2 3 cbr 210 ------- 1 2.1 3.0 33 167
r 0.126086 3 4 cbr 210 ------- 1 3.1 4.0 33 168
r 0.126086 4 5 cbr 210 ------- 1 4.1 5.0 33 169
+ 0.1275 0 1 cbr 210 ------- 1 0.0 1.0 34 170
- 0.1275 0 1 cbr 210 ------- 1 0.0 1.0 34 170
+ 0.1275 1 2 cbr 210 ------- 1 1.1 2.0 34 171
- 0.1275 1 2 cbr 210 ------- 1 1.1 2.0 34 171
+ 0.1275 2 3 cbr 210 ------- 1 2.1 3.0 34 172
- 0.1275 2 3 cbr 210 ------- 1 2.1 3.0 34 172
+ 0.1275 3 4 cbr 210 ------- 1 3.1 4.0 34 173
- 0.1275 3 4 cbr 210 ------- 1 3.1 4.0 34 173
+ 0.1275 4 5 cbr 210 ------- 1 4.1 5.0 34 174
- 0.1275 4 5 cbr 210 ------- 1 4.1 5.0 34 174
r 0.129836 0 1 cbr 210 ------- 1 0.0 1.0 34 170
r 0.129836 1 2 cbr 210 ------- 1 1.1 2.0 34 171
r 0.129836 2 3 cbr 210 ------- 1 2.1 3.0 34 172
r 0.129836 3 4 cbr 210 ------- 1 3.1 4.0 34 173
r 0.129836 4 5 cbr 210 ------- 1 4.1 5.0 34 174
+ 0.13125 0 1 cbr 210 ------- 1 0.0 1.0 35 175
- 0.13125 0 1 cbr 210 ------- 1 0.0 1.0 35 175
+ 0.13125 1 2 cbr 210 ------- 1 1.1 2.0 35 176
- 0.13125 1 2 cbr 210 ------- 1 1.1 2.0 35 176
+ 0.13125 2 3 cbr 210 ------- 1 2.1 3.0 35 177
- 0.13125 2 3 cbr 210 ------- 1 2.1 3.0 35 177
+ 0.13125 3 4 cbr 210 ------- 1 3.1 4.0 35 178
- 0.13125 3 4 cbr 210 ------- 1 3.1 4.0 35 178
+ 0.13125 4 5 cbr 210 ------- 1 4.1 5.0 35 179
- 0.13125 4 5 cbr 210 ------- 1 4.1 5.0 35 179
r 0.133586 0 1 cbr 210 ------- 1 0.0 1.0 35 175
r 0.133586 1 2 cbr 210 ------- 1 1.1 2.0 35 176
r 0.133586 2 3 cbr 210 ------- 1 2.1 3.0 35 177
r 0.133586 3 4 cbr 210 ------- 1 3.1 4.0 35 178
r 0.133586 4 5 cbr 210 ------- 1 4.1 5.0 35 179
+ 0.135 0 1 cbr 210 ------- 1 0.0 1.0 36 180
- 0.135 0 1 cbr 210 ------- 1 0.0 1.0 36 180
+ 0.135 1 2 cbr 210 ------- 1 1.1 2.0 36 181
- 0.135 1 2 cbr 210 ------- 1 1.1 2.0 36 181
+ 0.135 2 3 cbr 210 ------- 1 2.1 3.0 36 182
- 0.135 2 3 cbr 210 ------- 1 2.1 3.0 36 182
+ 0.135 3 4 cbr 210 ------- 1 3.1 4.0 36 183
- 0.135 3 4 cbr 210 ------- 1 3.1 4.0 36 183
+ 0.135 4 5 cbr 210 ------- 1 4.1 5.0 36 184
- 0.135 4 5 cbr 210 ------- 1 4.1 5.0 36 184
r 0.137336 0 1 cbr 210 ------- 1 0.0 1.0 36 180
r 0.137336 1 2 cbr 210 ------- 1 1.1 2.0 36 181
r 0.137336 2 3 cbr 210 ------- 1 2.1 3.0 36 182
r 0.137336 3 4 cbr 210 ------- 1 3.1 4.0 36 183
r 0.137336 4 5 cbr 210 ------- 1 4.1 5.0 36 184
+ 0.13875 0 1 cbr 210 ------- 1 0.0 1.0 37 185
- 0.13875 0 1 cbr 210 ------- 1 0.0 1.0 37 185
+ 0.13875 1 2 cbr 210 ------- 1 1.1 2.0 37 186
- 0.13875 1 2 cbr 210 ------- 1 1.1 2.0 37 186
+ 0.13875 2 3 cbr 210 ------- 1 2.1 3.0 37 187
- 0.13875 2 3 cbr 210 ------- 1 2.1 3.0 37 187
+ 0.13875 3 4 cbr 210 ------- 1 3.1 4.0 37 188
- 0.13875 3 4 cbr 210 ------- 1 3.1 4.0 37 188
+ 0.13875 4 5 cbr 210 ------- 1 4.1 5.0 37 189
- 0.13875 4 5 cbr 210 ------- 1 4.1 5.0 37 189
r 0.141086 0 1 cbr 210 ------- 1 0.0 1.0 37 185
r 0.141086 1 2 cbr 210 ------- 1 1.1 2.0 37 186
r 0.141086 2 3 cbr 210 ------- 1 2.1 3.0 37 187
r 0.141086 3 4 cbr 210 ------- 1 3.1 4.0 37 188
r 0.141086 4 5 cbr 210 ------- 1 4.1 5.0 37 189
+ 0.1425 0 1 cbr 210 ------- 1 0.0 1.0 38 190
- 0.1425 0 1 cbr 210 ------- 1 0.0 1.0 38 190
+ 0.1425 1 2 cbr 210 ------- 1 1.1 2.0 38 191
- 0.1425 1 2 cbr 210 ------- 1 1.1 2.0 38 191
+ 0.1425 2 3 cbr 210 ------- 1 2.1 3.0 38 192
- 0.1425 2 3 cbr 210 ------- 1 2.1 3.0 38 192
+ 0.1425 3 4 cbr 210 ------- 1 3.1 4.0 38 193
- 0.1425 3 4 cbr 210 ------- 1 3.1 4.0 38 193
+ 0.1425 4 5 cbr 210 ------- 1 4.1 5.0 38 194
- 0.1425 4 5 cbr 210 ------- 1 4.1 5.0 38 194
r 0.144836 0 1 cbr 210 ------- 1 0.0 1.0 38 190
r 0.144836 1 2 cbr 210 ------- 1 1.1 2.0 38 191
r 0.144836 2 3 cbr 210 ------- 1 2.1 3.0 38 192
r 0.144836 3 4 cbr 210 ------- 1 3.1 4.0 38 193
r 0.144836 4 5 cbr 210 ------- 1 4.1 5.0 38 194
+ 0.14625 0 1 cbr 210 ------- 1 0.0 1.0 39 195
- 0.14625 0 1 cbr 210 ------- 1 0.0 1.0 39 195
+ 0.14625 1 2 cbr 210 ------- 1 1.1 2.0 39 196
- 0.14625 1 2 cbr 210 ------- 1 1.1 2.0 39 196
+ 0.14625 2 3 cbr 210 ------- 1 2.1 3.0 39 197
- 0.14625 2 3 cbr 210 ------- 1 2.1 3.0 39 197
+ 0.14625 3 4 cbr 210 ------- 1 3.1 4.0 39 198
- 0.14625 3 4 cbr 210 ------- 1 3.1 4.0 39 198
+ 0.14625 4 5 cbr 210 ------- 1 4.1 5.0 39 199
- 0.14625 4 5 cbr 210 ------- 1 4.1 5.0 39 199
r 0.148586 0 1 cbr 210 ------- 1 0.0 1.0 39 195
r 0.148586 1 2 cbr 210 ------- 1 1.1 2.0 39 196
r 0.148586 2 3 cbr 210 ------- 1 2.1 3.0 39 197
r 0.148586 3 4 cbr 210 ------- 1 3.1 4.0 39 198
r 0.148586 4 5 cbr 210 ------- 1 4.1 5.0 39 199
+ 0.15 0 1 cbr 210 ------- 1 0.0 1.0 40 200
- 0.15 0 1 cbr 210 ------- 1 0.0 1.0 40 200
+ 0.15 1 2 cbr 210 ------- 1 1.1 2.0 40 201
- 0.15 1 2 cbr 210 ------- 1 1.1 2.0 40 201
+ 0.15 2 3 cbr 210 ------- 1 2.1 3.0 40 202
- 0.15 2 3 cbr 210 ------- 1 2.1 3.0 40 202
+ 0.15 3 4 cbr 210 ------- 1 3.1 4.0 40 203
- 0.15 3 4 cbr 210 ------- 1 3.1 4.0 40 203
+ 0.15 4 5 cbr 210 ------- 1 4.1 5.0 40 204
- 0.15 4 5 cbr 210 ------- 1 4.1 5.0 40 204
r 0.152336 0 1 cbr 210 ------- 1 0.0 1.0 40 200
r 0.152336 1 2 cbr 210 ------- 1 1.1 2.0 40 201
r 0.152336 2 3 cbr 210 ------- 1 2.1 3.0 40 202
r 0.152336 3 4 cbr 210 ------- 1 3.1 4.0 40 203
r 0.152336 4 5 cbr 210 ------- 1 4.1 5.0 40 204
+ 0.15375 0 1 cbr 210 ------- 1 0.0 1.0 41 205
- 0.15375 0 1 cbr 210 ------- 1 0.0 1.0 41 205
+ 0.15375 1 2 cbr 210 ------- 1 1.1 2.0 41 206
- 0.15375 1 2 cbr 210 ------- 1 1.1 2.0 41 206
+ 0.15375 2 3 cbr 210 ------- 1 2.1 3.0 41 207
- 0.15375 2 3 cbr 210 ------- 1 2.1 3.0 41 207
+ 0.15375 3 4 cbr 210 ------- 1 3.1 4.0 41 208
- 0.15375 3 4 cbr 210 ------- 1 3.1 4.0 41 208
+ 0.15375 4 5 cbr 210 ------- 1 4.1 5.0 41 209
- 0.15375 4 5 cbr 210 ------- 1 4.1 5.0 41 209
r 0.156086 0 1 cbr 210 ------- 1 0.0 1.0 41 205
r 0.156086 1 2 cbr 210 ------- 1 1.1 2.0 41 206
r 0.156086 2 3 cbr 210 ------- 1 2.1 3.0 41 207
r 0.156086 3 4 cbr 210 ------- 1 3.1 4.0 41 208
r 0.156086 4 5 cbr 210 ------- 1 4.1 5.0 41 209
+ 0.1575 0 1 cbr 210 ------- 1 0.0 1.0 42 210
- 0.1575 0 1 cbr 210 ------- 1 0.0 1.0 42 210
+ 0.1575 1 2 cbr 210 ------- 1 1.1 2.0 42 211
- 0.1575 1 2 cbr 210 ------- 1 1.1 2.0 42 211
+ 0.1575 2 3 cbr 210 ------- 1 2.1 3.0 42 212
- 0.1575 2 3 cbr 210 ------- 1 2.1 3.0 42 212
+ 0.1575 3 4 cbr 210 ------- 1 3.1 4.0 42 213
- 0.1575 3 4 cbr 210 ------- 1 3.1 4.0 42 213
+ 0.1575 4 5 cbr 210 ------- 1 4.1 5.0 42 214
- 0.1575 4 5 cbr 210 ------- 1 4.1 5.0 42 214
r 0.159836 0 1 cbr 210 ------- 1 0.0 1.0 42 210
r 0.159836 1 2 cbr 210 ------- 1 1.1 2.0 42 211
r 0.159836 2 3 cbr 210 ------- 1 2.1 3.0 42 212
r 0.159836 3 4 cbr 210 ------- 1 3.1 4.0 42 213
r 0.159836 4 5 cbr 210 ------- 1 4.1 5.0 42 214
+ 0.16125 0 1 cbr 210 ------- 1 0.0 1.0 43 215
- 0.16125 0 1 cbr 210 ------- 1 0.0 1.0 43 215
+ 0.16125 1 2 cbr 210 ------- 1 1.1 2.0 43 216
- 0.16125 1 2 cbr 210 ------- 1 1.1 2.0 43 216
+ 0.16125 2 3 cbr 210 ------- 1 2.1 3.0 43 217
- 0.16125 2 3 cbr 210 ------- 1 2.1 3.0 43 217
+ 0.16125 3 4 cbr 210 ------- 1 3.1 4.0 43 218