V -t * -v 1.0a5 -a 0
A -t * -n 1 -p 0 -o 0x7fffffff -c 30 -a 1
A -t * -h 1 -m 1073741823 -s 0
c -t * -i 0 -n red
c -t * -i 1 -n green
c -t * -i 2 -n blue
c -t * -i 3 -n orange
n -t * -a 0 -s 0 -S UP -v circle -c red -i red
n -t * -a 1 -s 1 -S UP -v circle -c green -i green
n -t * -a 2 -s 2 -S UP -v circle -c blue -i blue
n -t * -a 3 -s 3 -S UP -v circle -c orange -i orange
l -t * -s 0 -d 1 -S UP -r 10000000 -D 0.002 -c black
l -t * -s 1 -d 2 -S UP -r 10000000 -D 0.002 -c black
l -t * -s 2 -d 3 -S UP -r 10000000 -D 0.002 -c black
l -t * -s 3 -d 1 -S UP -r 10000000 -D 0.002 -c black
+ -t 0.5 -s 0 -d 1 -p cbr -e 210 -c 0 -i 0 -a 0 -x {0.0 3.0 0 ------- null}
- -t 0.5 -s 0 -d 1 -p cbr -e 210 -c 0 -i 0 -a 0 -x {0.0 3.0 0 ------- null}
h -t 0.5 -s 0 -d 1 -p cbr -e 210 -c 0 -i 0 -a 0 -x {0.0 3.0 -1 ------- null}
+ -t 0.5 -s 1 -d 2 -p tcp -e 40 -c 1 -i 1 -a 1 -x {1.0 2.0 0 ------- null}
- -t 0.5 -s 1 -d 2 -p tcp -e 40 -c 1 -i 1 -a 1 -x {1.0 2.0 0 ------- null}
h -t 0.5 -s 1 -d 2 -p tcp -e 40 -c 1 -i 1 -a 1 -x {1.0 2.0 -1 ------- null}
r -t 0.502032 -s 1 -d 2 -p tcp -e 40 -c 1 -i 1 -a 1 -x {1.0 2.0 0 ------- null}
+ -t 0.502032 -s 2 -d 1 -p ack -e 40 -c 1 -i 2 -a 1 -x {2.0 1.0 0 ------- null}
- -t 0.502032 -s 2 -d 1 -p ack -e 40 -c 1 -i 2 -a 1 -x {2.0 1.0 0 ------- null}
h -t 0.502032 -s 2 -d 1 -p ack -e 40 -c 1 -i 2 -a 1 -x {2.0 1.0 -1 ------- null}
r -t 0.502168 -s 0 -d 1 -p cbr -e 210 -c 0 -i 0 -a 0 -x {0.0 3.0 0 ------- null}
+ -t 0.502168 -s 1 -d 3 -p cbr -e 210 -c 0 -i 0 -a 0 -x {0.0 3.0 0 ------- null}
- -t 0.502168 -s 1 -d 3 -p cbr -e 210 -c 0 -i 0 -a 0 -x {0.0 3.0 0 ------- null}
h -t 0.502168 -s 1 -d 3 -p cbr -e 210 -c 0 -i 0 -a 0 -x {0.0 3.0 -1 ------- null}
+ -t 0.50375 -s 0 -d 1 -p cbr -e 210 -c 0 -i 3 -a 0 -x {0.0 3.0 1 ------- null}
- -t 0.50375 -s 0 -d 1 -p cbr -e 210 -c 0 -i 3 -a 0 -x {0.0 3.0 1 ------- null}
h -t 0.50375 -s 0 -d 1 -p cbr -e 210 -c 0 -i 3 -a 0 -x {0.0 3.0 -1 ------- null}
r -t 0.504064 -s 2 -d 1 -p ack -e 40 -c 1 -i 2 -a 1 -x {2.0 1.0 0 ------- null}
+ -t 0.504064 -s 1 -d 2 -p tcp -e 1040 -c 1 -i 4 -a 1 -x {1.0 2.0 1 ------- null}
- -t 0.504064 -s 1 -d 2 -p tcp -e 1040 -c 1 -i 4 -a 1 -x {1.0 2.0 1 ------- null}
h -t 0.504064 -s 1 -d 2 -p tcp -e 1040 -c 1 -i 4 -a 1 -x {1.0 2.0 -1 ------- null}
+ -t 0.504064 -s 1 -d 2 -p tcp -e 1040 -c 1 -i 5 -a 1 -x {1.0 2.0 2 ------- null}
r -t 0.504336 -s 1 -d 3 -p cbr -e 210 -c 0 -i 0 -a 0 -x {0.0 3.0 0 ------- null}
- -t 0.504896 -s 1 -d 2 -p tcp -e 1040 -c 1 -i 5 -a 1 -x {1.0 2.0 2 ------- null}
h -t 0.504896 -s 1 -d 2 -p tcp -e 1040 -c 1 -i 5 -a 1 -x {1.0 2.0 -1 ------- null}
r -t 0.505918 -s 0 -d 1 -p cbr -e 210 -c 0 -i 3 -a 0 -x {0.0 3.0 1 ------- null}
+ -t 0.505918 -s 1 -d 3 -p cbr -e 210 -c 0 -i 3 -a 0 -x {0.0 3.0 1 ------- null}
- -t 0.505918 -s 1 -d 3 -p cbr -e 210 -c 0 -i 3 -a 0 -x {0.0 3.0 1 ------- null}
h -t 0.505918 -s 1 -d 3 -p cbr -e 210 -c 0 -i 3 -a 0 -x {0.0 3.0 -1 ------- null}
r -t 0.506896 -s 1 -d 2 -p tcp -e 1040 -c 1 -i 4 -a 1 -x {1.0 2.0 1 ------- null}
+ -t 0.506896 -s 2 -d 1 -p ack -e 40 -c 1 -i 6 -a 1 -x {2.0 1.0 1 ------- null}
- -t 0.506896 -s 2 -d 1 -p ack -e 40 -c 1 -i 6 -a 1 -x {2.0 1.0 1 ------- null}
h -t 0.506896 -s 2 -d 1 -p ack -e 40 -c 1 -i 6 -a 1 -x {2.0 1.0 -1 ------- null}
+ -t 0.5075 -s 0 -d 1 -p cbr -e 210 -c 0 -i 7 -a 0 -x {0.0 3.0 2 ------- null}
- -t 0.5075 -s 0 -d 1 -p cbr -e 210 -c 0 -i 7 -a 0 -x {0.0 3.0 2 ------- null}
h -t 0.5075 -s 0 -d 1 -p cbr -e 210 -c 0 -i 7 -a 0 -x {0.0 3.0 -1 ------- null}
r -t 0.507728 -s 1 -d 2 -p tcp -e 1040 -c 1 -i 5 -a 1 -x {1.0 2.0 2 ------- null}
+ -t 0.507728 -s 2 -d 1 -p ack -e 40 -c 1 -i 8 -a 1 -x {2.0 1.0 2 ------- null}
- -t 0.507728 -s 2 -d 1 -p ack -e 40 -c 1 -i 8 -a 1 -x {2.0 1.0 2 ------- null}
h -t 0.507728 -s 2 -d 1 -p ack -e 40 -c 1 -i 8 -a 1 -x {2.0 1.0 -1 ------- null}
r -t 0.508086 -s 1 -d 3 -p cbr -e 210 -c 0 -i 3 -a 0 -x {0.0 3.0 1 ------- null}
r -t 0.508928 -s 2 -d 1 -p ack -e 40 -c 1 -i 6 -a 1 -x {2.0 1.0 1 ------- null}
+ -t 0.508928 -s 1 -d 2 -p tcp -e 1040 -c 1 -i 9 -a 1 -x {1.0 2.0 3 ------- null}
- -t 0.508928 -s 1 -d 2 -p tcp -e 1040 -c 1 -i 9 -a 1 -x {1.0 2.0 3 ------- null}
h -t 0.508928 -s 1 -d 2 -p tcp -e 1040 -c 1 -i 9 -a 1 -x {1.0 2.0 -1 ------- null}
+ -t 0.508928 -s 1 -d 2 -p tcp -e 1040 -c 1 -i 10 -a 1 -x {1.0 2.0 4 ------- null}
r -t 0.509668 -s 0 -d 1 -p cbr -e 210 -c 0 -i 7 -a 0 -x {0.0 3.0 2 ------- null}
+ -t 0.509668 -s 1 -d 3 -p cbr -e 210 -c 0 -i 7 -a 0 -x {0.0 3.0 2 ------- null}
- -t 0.509668 -s 1 -d 3 -p cbr -e 210 -c 0 -i 7 -a 0 -x {0.0 3.0 2 ------- null}
h -t 0.509668 -s 1 -d 3 -p cbr -e 210 -c 0 -i 7 -a 0 -x {0.0 3.0 -1 ------- null}
r -t 0.50976 -s 2 -d 1 -p ack -e 40 -c 1 -i 8 -a 1 -x {2.0 1.0 2 ------- null}
+ -t 0.50976 -s 1 -d 2 -p tcp -e 1040 -c 1 -i 11 -a 1 -x {1.0 2.0 5 ------- null}
+ -t 0.50976 -s 1 -d 2 -p tcp -e 1040 -c 1 -i 12 -a 1 -x {1.0 2.0 6 ------- null}
- -t 0.50976 -s 1 -d 2 -p tcp -e 1040 -c 1 -i 10 -a 1 -x {1.0 2.0 4 ------- null}
h -t 0.50976 -s 1 -d 2 -p tcp -e 1040 -c 1 -i 10 -a 1 -x {1.0 2.0 -1 ------- null}
- -t 0.510592 -s 1 -d 2 -p tcp -e 1040 -c 1 -i 11 -a 1 -x {1.0 2.0 5 ------- null}
h -t 0.510592 -s 1 -d 2 -p tcp -e 1040 -c 1 -i 11 -a 1 -x {1.0 2.0 -1 ------- null}
+ -t 0.51125 -s 0 -d 1 -p cbr -e 210 -c 0 -i 13 -a 0 -x {0.0 3.0 3 ------- null}
- -t 0.51125 -s 0 -d 1 -p cbr -e 210 -c 0 -i 13 -a 0 -x {0.0 3.0 3 ------- null}
h -t 0.51125 -s 0 -d 1 -p cbr -e 210 -c 0 -i 13 -a 0 -x {0.0 3.0 -1 ------- null}
- -t 0.511424 -s 1 -d 2 -p tcp -e 1040 -c 1 -i 12 -a 1 -x {1.0 2.0 6 ------- null}
h -t 0.511424 -s 1 -d 2 -p tcp -e 1040 -c 1 -i 12 -a 1 -x {1.0 2.0 -1 ------- null}
r -t 0.51176 -s 1 -d 2 -p tcp -e 1040 -c 1 -i 9 -a 1 -x {1.0 2.0 3 ------- null}
+ -t 0.51176 -s 2 -d 1 -p ack -e 40 -c 1 -i 14 -a 1 -x {2.0 1.0 3 ------- null}
- -t 0.51176 -s 2 -d 1 -p ack -e 40 -c 1 -i 14 -a 1 -x {2.0 1.0 3 ------- null}
h -t 0.51176 -s 2 -d 1 -p ack -e 40 -c 1 -i 14 -a 1 -x {2.0 1.0 -1 ------- null}
r -t 0.511836 -s 1 -d 3 -p cbr -e 210 -c 0 -i 7 -a 0 -x {0.0 3.0 2 ------- null}
r -t 0.512592 -s 1 -d 2 -p tcp -e 1040 -c 1 -i 10 -a 1 -x {1.0 2.0 4 ------- null}
+ -t 0.512592 -s 2 -d 1 -p ack -e 40 -c 1 -i 15 -a 1 -x {2.0 1.0 4 ------- null}
- -t 0.512592 -s 2 -d 1 -p ack -e 40 -c 1 -i 15 -a 1 -x {2.0 1.0 4 ------- null}
h -t 0.512592 -s 2 -d 1 -p ack -e 40 -c 1 -i 15 -a 1 -x {2.0 1.0 -1 ------- null}
r -t 0.513418 -s 0 -d 1 -p cbr -e 210 -c 0 -i 13 -a 0 -x {0.0 3.0 3 ------- null}
+ -t 0.513418 -s 1 -d 3 -p cbr -e 210 -c 0 -i 13 -a 0 -x {0.0 3.0 3 ------- null}
- -t 0.513418 -s 1 -d 3 -p cbr -e 210 -c 0 -i 13 -a 0 -x {0.0 3.0 3 ------- null}
h -t 0.513418 -s 1 -d 3 -p cbr -e 210 -c 0 -i 13 -a 0 -x {0.0 3.0 -1 ------- null}
r -t 0.513424 -s 1 -d 2 -p tcp -e 1040 -c 1 -i 11 -a 1 -x {1.0 2.0 5 ------- null}
+ -t 0.513424 -s 2 -d 1 -p ack -e 40 -c 1 -i 16 -a 1 -x {2.0 1.0 5 ------- null}
- -t 0.513424 -s 2 -d 1 -p ack -e 40 -c 1 -i 16 -a 1 -x {2.0 1.0 5 ------- null}
h -t 0.513424 -s 2 -d 1 -p ack -e 40 -c 1 -i 16 -a 1 -x {2.0 1.0 -1 ------- null}
r -t 0.513792 -s 2 -d 1 -p ack -e 40 -c 1 -i 14 -a 1 -x {2.0 1.0 3 ------- null}
+ -t 0.513792 -s 1 -d 2 -p tcp -e 1040 -c 1 -i 17 -a 1 -x {1.0 2.0 7 ------- null}
- -t 0.513792 -s 1 -d 2 -p tcp -e 1040 -c 1 -i 17 -a 1 -x {1.0 2.0 7 ------- null}
h -t 0.513792 -s 1 -d 2 -p tcp -e 1040 -c 1 -i 17 -a 1 -x {1.0 2.0 -1 ------- null}
+ -t 0.513792 -s 1 -d 2 -p tcp -e 1040 -c 1 -i 18 -a 1 -x {1.0 2.0 8 ------- null}
r -t 0.514256 -s 1 -d 2 -p tcp -e 1040 -c 1 -i 12 -a 1 -x {1.0 2.0 6 ------- null}
+ -t 0.514256 -s 2 -d 1 -p ack -e 40 -c 1 -i 19 -a 1 -x {2.0 1.0 6 ------- null}
- -t 0.514256 -s 2 -d 1 -p ack -e 40 -c 1 -i 19 -a 1 -x {2.0 1.0 6 ------- null}
h -t 0.514256 -s 2 -d 1 -p ack -e 40 -c 1 -i 19 -a 1 -x {2.0 1.0 -1 ------- null}
r -t 0.514624 -s 2 -d 1 -p ack -e 40 -c 1 -i 15 -a 1 -x {2.0 1.0 4 ------- null}
+ -t 0.514624 -s 1 -d 2 -p tcp -e 1040 -c 1 -i 20 -a 1 -x {1.0 2.0 9 ------- null}
+ -t 0.514624 -s 1 -d 2 -p tcp -e 1040 -c 1 -i 21 -a 1 -x {1.0 2.0 10 ------- null}
- -t 0.514624 -s 1 -d 2 -p tcp -e 1040 -c 1 -i 18 -a 1 -x {1.0 2.0 8 ------- null}
h -t 0.514624 -s 1 -d 2 -p tcp -e 1040 -c 1 -i 18 -a 1 -x {1.0 2.0 -1 ------- null}
+ -t 0.515 -s 0 -d 1 -p cbr -e 210 -c 0 -i 22 -a 0 -x {0.0 3.0 4 ------- null}
- -t 0.515 -s 0 -d 1 -p cbr -e 210 -c 0 -i 22 -a 0 -x {0.0 3.0 4 ------- null}
h -t 0.515 -s 0 -d 1 -p cbr -e 210 -c 0 -i 22 -a 0 -x {0.0 3.0 -1 ------- null}
r -t 0.515456 -s 2 -d 1 -p ack -e 40 -c 1 -i 16 -a 1 -x {2.0 1.0 5 ------- null}
+ -t 0.515456 -s 1 -d 2 -p tcp -e 1040 -c 1 -i 23 -a 1 -x {1.0 2.0 11 ------- null}
+ -t 0.515456 -s 1 -d 2 -p tcp -e 1040 -c 1 -i 24 -a 1 -x {1.0 2.0 12 ------- null}
- -t 0.515456 -s 1 -d 2 -p tcp -e 1040 -c 1 -i 20 -a 1 -x {1.0 2.0 9 ------- null}
h -t 0.515456 -s 1 -d 2 -p tcp -e 1040 -c 1 -i 20 -a 1 -x {1.0 2.0 -1 ------- null}
r -t 0.515586 -s 1 -d 3 -p cbr -e 210 -c 0 -i 13 -a 0 -x {0.0 3.0 3 ------- null}
r -t 0.516288 -s 2 -d 1 -p ack -e 40 -c 1 -i 19 -a 1 -x {2.0 1.0 6 ------- null}
+ -t 0.516288 -s 1 -d 2 -p tcp -e 1040 -c 1 -i 25 -a 1 -x {1.0 2.0 13 ------- null}
+ -t 0.516288 -s 1 -d 2 -p tcp -e 1040 -c 1 -i 26 -a 1 -x {1.0 2.0 14 ------- null}
- -t 0.516288 -s 1 -d 2 -p tcp -e 1040 -c 1 -i 21 -a 1 -x {1.0 2.0 10 ------- null}
h -t 0.516288 -s 1 -d 2 -p tcp -e 1040 -c 1 -i 21 -a 1 -x {1.0 2.0 -1 ------- null}
r -t 0.516624 -s 1 -d 2 -p tcp -e 1040 -c 1 -i 17 -a 1 -x {1.0 2.0 7 ------- null}
+ -t 0.516624 -s 2 -d 1 -p ack -e 40 -c 1 -i 27 -a 1 -x {2.0 1.0 7 ------- null}
- -t 0.516624 -s 2 -d 1 -p ack -e 40 -c 1 -i 27 -a 1 -x {2.0 1.0 7 ------- null}
h -t 0.516624 -s 2 -d 1 -p ack -e 40 -c 1 -i 27 -a 1 -x {2.0 1.0 -1 ------- null}
- -t 0.51712 -s 1 -d 2 -p tcp -e 1040 -c 1 -i 23 -a 1 -x {1.0 2.0 11 ------- null}
h -t 0.51712 -s 1 -d 2 -p tcp -e 1040 -c 1 -i 23 -a 1 -x {1.0 2.0 -1 ------- null}
r -t 0.517168 -s 0 -d 1 -p cbr -e 210 -c 0 -i 22 -a 0 -x {0.0 3.0 4 ------- null}
+ -t 0.517168 -s 1 -d 3 -p cbr -e 210 -c 0 -i 22 -a 0 -x {0.0 3.0 4 ------- null}
- -t 0.517168 -s 1 -d 3 -p cbr -e 210 -c 0 -i 22 -a 0 -x {0.0 3.0 4 ------- null}
h -t 0.517168 -s 1 -d 3 -p cbr -e 210 -c 0 -i 22 -a 0 -x {0.0 3.0 -1 ------- null}
r -t 0.517456 -s 1 -d 2 -p tcp -e 1040 -c 1 -i 18 -a 1 -x {1.0 2.0 8 ------- null}
+ -t 0.517456 -s 2 -d 1 -p ack -e 40 -c 1 -i 28 -a 1 -x {2.0 1.0 8 ------- null}
- -t 0.517456 -s 2 -d 1 -p ack -e 40 -c 1 -i 28 -a 1 -x {2.0 1.0 8 ------- null}
h -t 0.517456 -s 2 -d 1 -p ack -e 40 -c 1 -i 28 -a 1 -x {2.0 1.0 -1 ------- null}
- -t 0.517952 -s 1 -d 2 -p tcp -e 1040 -c 1 -i 24 -a 1 -x {1.0 2.0 12 ------- null}
h -t 0.517952 -s 1 -d 2 -p tcp -e 1040 -c 1 -i 24 -a 1 -x {1.0 2.0 -1 ------- null}
r -t 0.518288 -s 1 -d 2 -p tcp -e 1040 -c 1 -i 20 -a 1 -x {1.0 2.0 9 ------- null}
+ -t 0.518288 -s 2 -d 1 -p ack -e 40 -c 1 -i 29 -a 1 -x {2.0 1.0 9 ------- null}
- -t 0.518288 -s 2 -d 1 -p ack -e 40 -c 1 -i 29 -a 1 -x {2.0 1.0 9 ------- null}
h -t 0.518288 -s 2 -d 1 -p ack -e 40 -c 1 -i 29 -a 1 -x {2.0 1.0 -1 ------- null}
r -t 0.518656 -s 2 -d 1 -p ack -e 40 -c 1 -i 27 -a 1 -x {2.0 1.0 7 ------- null}
+ -t 0.518656 -s 1 -d 2 -p tcp -e 1040 -c 1 -i 30 -a 1 -x {1.0 2.0 15 ------- null}
+ -t 0.518656 -s 1 -d 2 -p tcp -e 1040 -c 1 -i 31 -a 1 -x {1.0 2.0 16 ------- null}
+ -t 0.51875 -s 0 -d 1 -p cbr -e 210 -c 0 -i 32 -a 0 -x {0.0 3.0 5 ------- null}
- -t 0.51875 -s 0 -d 1 -p cbr -e 210 -c 0 -i 32 -a 0 -x {0.0 3.0 5 ------- null}
h -t 0.51875 -s 0 -d 1 -p cbr -e 210 -c 0 -i 32 -a 0 -x {0.0 3.0 -1 ------- null}
- -t 0.518784 -s 1 -d 2 -p tcp -e 1040 -c 1 -i 25 -a 1 -x {1.0 2.0 13 ------- null}
h -t 0.518784 -s 1 -d 2 -p tcp -e 1040 -c 1 -i 25 -a 1 -x {1.0 2.0 -1 ------- null}
r -t 0.51912 -s 1 -d 2 -p tcp -e 1040 -c 1 -i 21 -a 1 -x {1.0 2.0 10 ------- null}
+ -t 0.51912 -s 2 -d 1 -p ack -e 40 -c 1 -i 33 -a 1 -x {2.0 1.0 10 ------- null}
- -t 0.51912 -s 2 -d 1 -p ack -e 40 -c 1 -i 33 -a 1 -x {2.0 1.0 10 ------- null}
h -t 0.51912 -s 2 -d 1 -p ack -e 40 -c 1 -i 33 -a 1 -x {2.0 1.0 -1 ------- null}
r -t 0.519336 -s 1 -d 3 -p cbr -e 210 -c 0 -i 22 -a 0 -x {0.0 3.0 4 ------- null}
r -t 0.519488 -s 2 -d 1 -p ack -e 40 -c 1 -i 28 -a 1 -x {2.0 1.0 8 ------- null}
+ -t 0.519488 -s 1 -d 2 -p tcp -e 1040 -c 1 -i 34 -a 1 -x {1.0 2.0 17 ------- null}
+ -t 0.519488 -s 1 -d 2 -p tcp -e 1040 -c 1 -i 35 -a 1 -x {1.0 2.0 18 ------- null}
- -t 0.519616 -s 1 -d 2 -p tcp -e 1040 -c 1 -i 26 -a 1 -x {1.0 2.0 14 ------- null}
h -t 0.519616 -s 1 -d 2 -p tcp -e 1040 -c 1 -i 26 -a 1 -x {1.0 2.0 -1 ------- null}
r -t 0.519952 -s 1 -d 2 -p tcp -e 1040 -c 1 -i 23 -a 1 -x {1.0 2.0 11 ------- null}
+ -t 0.519952 -s 2 -d 1 -p ack -e 40 -c 1 -i 36 -a 1 -x {2.0 1.0 11 ------- null}
- -t 0.519952 -s 2 -d 1 -p ack -e 40 -c 1 -i 36 -a 1 -x {2.0 1.0 11 ------- null}
h -t 0.519952 -s 2 -d 1 -p ack -e 40 -c 1 -i 36 -a 1 -x {2.0 1.0 -1 ------- null}
r -t 0.52032 -s 2 -d 1 -p ack -e 40 -c 1 -i 29 -a 1 -x {2.0 1.0 9 ------- null}
+ -t 0.52032 -s 1 -d 2 -p tcp -e 1040 -c 1 -i 37 -a 1 -x {1.0 2.0 19 ------- null}
+ -t 0.52032 -s 1 -d 2 -p tcp -e 1040 -c 1 -i 38 -a 1 -x {1.0 2.0 20 ------- null}
- -t 0.520448 -s 1 -d 2 -p tcp -e 1040 -c 1 -i 30 -a 1 -x {1.0 2.0 15 ------- null}
h -t 0.520448 -s 1 -d 2 -p tcp -e 1040 -c 1 -i 30 -a 1 -x {1.0 2.0 -1 ------- null}
r -t 0.520784 -s 1 -d 2 -p tcp -e 1040 -c 1 -i 24 -a 1 -x {1.0 2.0 12 ------- null}
+ -t 0.520784 -s 2 -d 1 -p ack -e 40 -c 1 -i 39 -a 1 -x {2.0 1.0 12 ------- null}
- -t 0.520784 -s 2 -d 1 -p ack -e 40 -c 1 -i 39 -a 1 -x {2.0 1.0 12 ------- null}
h -t 0.520784 -s 2 -d 1 -p ack -e 40 -c 1 -i 39 -a 1 -x {2.0 1.0 -1 ------- null}
r -t 0.520918 -s 0 -d 1 -p cbr -e 210 -c 0 -i 32 -a 0 -x {0.0 3.0 5 ------- null}
+ -t 0.520918 -s 1 -d 3 -p cbr -e 210 -c 0 -i 32 -a 0 -x {0.0 3.0 5 ------- null}
- -t 0.520918 -s 1 -d 3 -p cbr -e 210 -c 0 -i 32 -a 0 -x {0.0 3.0 5 ------- null}
h -t 0.520918 -s 1 -d 3 -p cbr -e 210 -c 0 -i 32 -a 0 -x {0.0 3.0 -1 ------- null}
r -t 0.521152 -s 2 -d 1 -p ack -e 40 -c 1 -i 33 -a 1 -x {2.0 1.0 10 ------- null}
+ -t 0.521152 -s 1 -d 2 -p tcp -e 1040 -c 1 -i 40 -a 1 -x {1.0 2.0 21 ------- null}
+ -t 0.521152 -s 1 -d 2 -p tcp -e 1040 -c 1 -i 41 -a 1 -x {1.0 2.0 22 ------- null}
- -t 0.521280000000001 -s 1 -d 2 -p tcp -e 1040 -c 1 -i 31 -a 1 -x {1.0 2.0 16 ------- null}
h -t 0.521280000000001 -s 1 -d 2 -p tcp -e 1040 -c 1 -i 31 -a 1 -x {1.0 2.0 -1 ------- null}
r -t 0.521616 -s 1 -d 2 -p tcp -e 1040 -c 1 -i 25 -a 1 -x {1.0 2.0 13 ------- null}
+ -t 0.521616 -s 2 -d 1 -p ack -e 40 -c 1 -i 42 -a 1 -x {2.0 1.0 13 ------- null}
- -t 0.521616 -s 2 -d 1 -p ack -e 40 -c 1 -i 42 -a 1 -x {2.0 1.0 13 ------- null}
h -t 0.521616 -s 2 -d 1 -p ack -e 40 -c 1 -i 42 -a 1 -x {2.0 1.0 -1 ------- null}
r -t 0.521984 -s 2 -d 1 -p ack -e 40 -c 1 -i 36 -a 1 -x {2.0 1.0 11 ------- null}
+ -t 0.521984 -s 1 -d 2 -p tcp -e 1040 -c 1 -i 43 -a 1 -x {1.0 2.0 23 ------- null}
+ -t 0.521984 -s 1 -d 2 -p tcp -e 1040 -c 1 -i 44 -a 1 -x {1.0 2.0 24 ------- null}
- -t 0.522112000000001 -s 1 -d 2 -p tcp -e 1040 -c 1 -i 34 -a 1 -x {1.0 2.0 17 ------- null}
h -t 0.522112000000001 -s 1 -d 2 -p tcp -e 1040 -c 1 -i 34 -a 1 -x {1.0 2.0 -1 ------- null}
r -t 0.522448 -s 1 -d 2 -p tcp -e 1040 -c 1 -i 26 -a 1 -x {1.0 2.0 14 ------- null}
+ -t 0.522448 -s 2 -d 1 -p ack -e 40 -c 1 -i 45 -a 1 -x {2.0 1.0 14 ------- null}
- -t 0.522448 -s 2 -d 1 -p ack -e 40 -c 1 -i 45 -a 1 -x {2.0 1.0 14 ------- null}
h -t 0.522448 -s 2 -d 1 -p ack -e 40 -c 1 -i 45 -a 1 -x {2.0 1.0 -1 ------- null}
+ -t 0.5225 -s 0 -d 1 -p cbr -e 210 -c 0 -i 46 -a 0 -x {0.0 3.0 6 ------- null}
- -t 0.5225 -s 0 -d 1 -p cbr -e 210 -c 0 -i 46 -a 0 -x {0.0 3.0 6 ------- null}
h -t 0.5225 -s 0 -d 1 -p cbr -e 210 -c 0 -i 46 -a 0 -x {0.0 3.0 -1 ------- null}
r -t 0.522816 -s 2 -d 1 -p ack -e 40 -c 1 -i 39 -a 1 -x {2.0 1.0 12 ------- null}
+ -t 0.522816 -s 1 -d 2 -p tcp -e 1040 -c 1 -i 47 -a 1 -x {1.0 2.0 25 ------- null}
+ -t 0.522816 -s 1 -d 2 -p tcp -e 1040 -c 1 -i 48 -a 1 -x {1.0 2.0 26 ------- null}
- -t 0.522944000000001 -s 1 -d 2 -p tcp -e 1040 -c 1 -i 35 -a 1 -x {1.0 2.0 18 ------- null}
h -t 0.522944000000001 -s 1 -d 2 -p tcp -e 1040 -c 1 -i 35 -a 1 -x {1.0 2.0 -1 ------- null}
r -t 0.523086 -s 1 -d 3 -p cbr -e 210 -c 0 -i 32 -a 0 -x {0.0 3.0 5 ------- null}
r -t 0.52328 -s 1 -d 2 -p tcp -e 1040 -c 1 -i 30 -a 1 -x {1.0 2.0 15 ------- null}
+ -t 0.52328 -s 2 -d 1 -p ack -e 40 -c 1 -i 49 -a 1 -x {2.0 1.0 15 ------- null}
- -t 0.52328 -s 2 -d 1 -p ack -e 40 -c 1 -i 49 -a 1 -x {2.0 1.0 15 ------- null}
h -t 0.52328 -s 2 -d 1 -p ack -e 40 -c 1 -i 49 -a 1 -x {2.0 1.0 -1 ------- null}
r -t 0.523648 -s 2 -d 1 -p ack -e 40 -c 1 -i 42 -a 1 -x {2.0 1.0 13 ------- null}
+ -t 0.523648 -s 1 -d 2 -p tcp -e 1040 -c 1 -i 50 -a 1 -x {1.0 2.0 27 ------- null}
+ -t 0.523648 -s 1 -d 2 -p tcp -e 1040 -c 1 -i 51 -a 1 -x {1.0 2.0 28 ------- null}
- -t 0.523776000000001 -s 1 -d 2 -p tcp -e 1040 -c 1 -i 37 -a 1 -x {1.0 2.0 19 ------- null}
h -t 0.523776000000001 -s 1 -d 2 -p tcp -e 1040 -c 1 -i 37 -a 1 -x {1.0 2.0 -1 ------- null}
r -t 0.524112 -s 1 -d 2 -p tcp -e 1040 -c 1 -i 31 -a 1 -x {1.0 2.0 16 ------- null}
+ -t 0.524112 -s 2 -d 1 -p ack -e 40 -c 1 -i 52 -a 1 -x {2.0 1.0 16 ------- null}
- -t 0.524112 -s 2 -d 1 -p ack -e 40 -c 1 -i 52 -a 1 -x {2.0 1.0 16 ------- null}
h -t 0.524112 -s 2 -d 1 -p ack -e 40 -c 1 -i 52 -a 1 -x {2.0 1.0 -1 ------- null}
r -t 0.52448 -s 2 -d 1 -p ack -e 40 -c 1 -i 45 -a 1 -x {2.0 1.0 14 ------- null}
+ -t 0.52448 -s 1 -d 2 -p tcp -e 1040 -c 1 -i 53 -a 1 -x {1.0 2.0 29 ------- null}
+ -t 0.52448 -s 1 -d 2 -p tcp -e 1040 -c 1 -i 54 -a 1 -x {1.0 2.0 30 ------- null}
- -t 0.524608000000001 -s 1 -d 2 -p tcp -e 1040 -c 1 -i 38 -a 1 -x {1.0 2.0 20 ------- null}
h -t 0.524608000000001 -s 1 -d 2 -p tcp -e 1040 -c 1 -i 38 -a 1 -x {1.0 2.0 -1 ------- null}
r -t 0.524668 -s 0 -d 1 -p cbr -e 210 -c 0 -i 46 -a 0 -x {0.0 3.0 6 ------- null}
+ -t 0.524668 -s 1 -d 3 -p cbr -e 210 -c 0 -i 46 -a 0 -x {0.0 3.0 6 ------- null}
- -t 0.524668 -s 1 -d 3 -p cbr -e 210 -c 0 -i 46 -a 0 -x {0.0 3.0 6 ------- null}
h -t 0.524668 -s 1 -d 3 -p cbr -e 210 -c 0 -i 46 -a 0 -x {0.0 3.0 -1 ------- null}
r -t 0.524944000000001 -s 1 -d 2 -p tcp -e 1040 -c 1 -i 34 -a 1 -x {1.0 2.0 17 ------- null}
+ -t 0.524944000000001 -s 2 -d 1 -p ack -e 40 -c 1 -i 55 -a 1 -x {2.0 1.0 17 ------- null}
- -t 0.524944000000001 -s 2 -d 1 -p ack -e 40 -c 1 -i 55 -a 1 -x {2.0 1.0 17 ------- null}
h -t 0.524944000000001 -s 2 -d 1 -p ack -e 40 -c 1 -i 55 -a 1 -x {2.0 1.0 -1 ------- null}
r -t 0.525312 -s 2 -d 1 -p ack -e 40 -c 1 -i 49 -a 1 -x {2.0 1.0 15 ------- null}
+ -t 0.525312 -s 1 -d 2 -p tcp -e 1040 -c 1 -i 56 -a 1 -x {1.0 2.0 31 ------- null}
+ -t 0.525312 -s 1 -d 2 -p tcp -e 1040 -c 1 -i 57 -a 1 -x {1.0 2.0 32 ------- null}
- -t 0.525440000000001 -s 1 -d 2 -p tcp -e 1040 -c 1 -i 40 -a 1 -x {1.0 2.0 21 ------- null}
h -t 0.525440000000001 -s 1 -d 2 -p tcp -e 1040 -c 1 -i 40 -a 1 -x {1.0 2.0 -1 ------- null}
r -t 0.525776000000001 -s 1 -d 2 -p tcp -e 1040 -c 1 -i 35 -a 1 -x {1.0 2.0 18 ------- null}
+ -t 0.525776000000001 -s 2 -d 1 -p ack -e 40 -c 1 -i 58 -a 1 -x {2.0 1.0 18 ------- null}
- -t 0.525776000000001 -s 2 -d 1 -p ack -e 40 -c 1 -i 58 -a 1 -x {2.0 1.0 18 ------- null}
h -t 0.525776000000001 -s 2 -d 1 -p ack -e 40 -c 1 -i 58 -a 1 -x {2.0 1.0 -1 ------- null}
r -t 0.526144000000001 -s 2 -d 1 -p ack -e 40 -c 1 -i 52 -a 1 -x {2.0 1.0 16 ------- null}
+ -t 0.526144000000001 -s 1 -d 2 -p tcp -e 1040 -c 1 -i 59 -a 1 -x {1.0 2.0 33 ------- null}
+ -t 0.526144000000001 -s 1 -d 2 -p tcp -e 1040 -c 1 -i 60 -a 1 -x {1.0 2.0 34 ------- null}
+ -t 0.52625 -s 0 -d 1 -p cbr -e 210 -c 0 -i 61 -a 0 -x {0.0 3.0 7 ------- null}
- -t 0.52625 -s 0 -d 1 -p cbr -e 210 -c 0 -i 61 -a 0 -x {0.0 3.0 7 ------- null}
h -t 0.52625 -s 0 -d 1 -p cbr -e 210 -c 0 -i 61 -a 0 -x {0.0 3.0 -1 ------- null}
- -t 0.526272000000001 -s 1 -d 2 -p tcp -e 1040 -c 1 -i 41 -a 1 -x {1.0 2.0 22 ------- null}
h -t 0.526272000000001 -s 1 -d 2 -p tcp -e 1040 -c 1 -i 41 -a 1 -x {1.0 2.0 -1 ------- null}
r -t 0.526608000000001 -s 1 -d 2 -p tcp -e 1040 -c 1 -i 37 -a 1 -x {1.0 2.0 19 ------- null}
+ -t 0.526608000000001 -s 2 -d 1 -p ack -e 40 -c 1 -i 62 -a 1 -x {2.0 1.0 19 ------- null}
- -t 0.526608000000001 -s 2 -d 1 -p ack -e 40 -c 1 -i 62 -a 1 -x {2.0 1.0 19 ------- null}
h -t 0.526608000000001 -s 2 -d 1 -p ack -e 40 -c 1 -i 62 -a 1 -x {2.0 1.0 -1 ------- null}
r -t 0.526836 -s 1 -d 3 -p cbr -e 210 -c 0 -i 46 -a 0 -x {0.0 3.0 6 ------- null}
r -t 0.526976000000001 -s 2 -d 1 -p ack -e 40 -c 1 -i 55 -a 1 -x {2.0 1.0 17 ------- null}
+ -t 0.526976000000001 -s 1 -d 2 -p tcp -e 1040 -c 1 -i 63 -a 1 -x {1.0 2.0 35 ------- null}
+ -t 0.526976000000001 -s 1 -d 2 -p tcp -e 1040 -c 1 -i 64 -a 1 -x {1.0 2.0 36 ------- null}
- -t 0.527104000000001 -s 1 -d 2 -p tcp -e 1040 -c 1 -i 43 -a 1 -x {1.0 2.0 23 ------- null}
h -t 0.527104000000001 -s 1 -d 2 -p tcp -e 1040 -c 1 -i 43 -a 1 -x {1.0 2.0 -1 ------- null}
r -t 0.527440000000001 -s 1 -d 2 -p tcp -e 1040 -c 1 -i 38 -a 1 -x {1.0 2.0 20 ------- null}
+ -t 0.527440000000001 -s 2 -d 1 -p ack -e 40 -c 1 -i 65 -a 1 -x {2.0 1.0 20 ------- null}
- -t 0.527440000000001 -s 2 -d 1 -p ack -e 40 -c 1 -i 65 -a 1 -x {2.0 1.0 20 ------- null}
h -t 0.527440000000001 -s 2 -d 1 -p ack -e 40 -c 1 -i 65 -a 1 -x {2.0 1.0 -1 ------- null}
r -t 0.527808000000001 -s 2 -d 1 -p ack -e 40 -c 1 -i 58 -a 1 -x {2.0 1.0 18 ------- null}
+ -t 0.527808000000001 -s 1 -d 2 -p tcp -e 1040 -c 1 -i 66 -a 1 -x {1.0 2.0 37 ------- null}
+ -t 0.527808000000001 -s 1 -d 2 -p tcp -e 1040 -c 1 -i 67 -a 1 -x {1.0 2.0 38 ------- null}
- -t 0.527936000000001 -s 1 -d 2 -p tcp -e 1040 -c 1 -i 44 -a 1 -x {1.0 2.0 24 ------- null}
h -t 0.527936000000001 -s 1 -d 2 -p tcp -e 1040 -c 1 -i 44 -a 1 -x {1.0 2.0 -1 ------- null}
r -t 0.528272000000001 -s 1 -d 2 -p tcp -e 1040 -c 1 -i 40 -a 1 -x {1.0 2.0 21 ------- null}
+ -t 0.528272000000001 -s 2 -d 1 -p ack -e 40 -c 1 -i 68 -a 1 -x {2.0 1.0 21 ------- null}
- -t 0.528272000000001 -s 2 -d 1 -p ack -e 40 -c 1 -i 68 -a 1 -x {2.0 1.0 21 ------- null}
h -t 0.528272000000001 -s 2 -d 1 -p ack -e 40 -c 1 -i 68 -a 1 -x {2.0 1.0 -1 ------- null}
r -t 0.528418 -s 0 -d 1 -p cbr -e 210 -c 0 -i 61 -a 0 -x {0.0 3.0 7 ------- null}
+ -t 0.528418 -s 1 -d 3 -p cbr -e 210 -c 0 -i 61 -a 0 -x {0.0 3.0 7 ------- null}
- -t 0.528418 -s 1 -d 3 -p cbr -e 210 -c 0 -i 61 -a 0 -x {0.0 3.0 7 ------- null}
h -t 0.528418 -s 1 -d 3 -p cbr -e 210 -c 0 -i 61 -a 0 -x {0.0 3.0 -1 ------- null}
r -t 0.528640000000001 -s 2 -d 1 -p ack -e 40 -c 1 -i 62 -a 1 -x {2.0 1.0 19 ------- null}
+ -t 0.528640000000001 -s 1 -d 2 -p tcp -e 1040 -c 1 -i 69 -a 1 -x {1.0 2.0 39 ------- null}
- -t 0.528768000000001 -s 1 -d 2 -p tcp -e 1040 -c 1 -i 47 -a 1 -x {1.0 2.0 25 ------- null}
h -t 0.528768000000001 -s 1 -d 2 -p tcp -e 1040 -c 1 -i 47 -a 1 -x {1.0 2.0 -1 ------- null}
r -t 0.529104000000001 -s 1 -d 2 -p tcp -e 1040 -c 1 -i 41 -a 1 -x {1.0 2.0 22 ------- null}
+ -t 0.529104000000001 -s 2 -d 1 -p ack -e 40 -c 1 -i 70 -a 1 -x {2.0 1.0 22 ------- null}
- -t 0.529104000000001 -s 2 -d 1 -p ack -e 40 -c 1 -i 70 -a 1 -x {2.0 1.0 22 ------- null}
h -t 0.529104000000001 -s 2 -d 1 -p ack -e 40 -c 1 -i 70 -a 1 -x {2.0 1.0 -1 ------- null}
r -t 0.529472000000001 -s 2 -d 1 -p ack -e 40 -c 1 -i 65 -a 1 -x {2.0 1.0 20 ------- null}
+ -t 0.529472000000001 -s 1 -d 2 -p tcp -e 1040 -c 1 -i 71 -a 1 -x {1.0 2.0 40 ------- null}
- -t 0.529600000000001 -s 1 -d 2 -p tcp -e 1040 -c 1 -i 48 -a 1 -x {1.0 2.0 26 ------- null}
h -t 0.529600000000001 -s 1 -d 2 -p tcp -e 1040 -c 1 -i 48 -a 1 -x {1.0 2.0 -1 ------- null}
r -t 0.529936000000001 -s 1 -d 2 -p tcp -e 1040 -c 1 -i 43 -a 1 -x {1.0 2.0 23 ------- null}
+ -t 0.529936000000001 -s 2 -d 1 -p ack -e 40 -c 1 -i 72 -a 1 -x {2.0 1.0 23 ------- null}
- -t 0.529936000000001 -s 2 -d 1 -p ack -e 40 -c 1 -i 72 -a 1 -x {2.0 1.0 23 ------- null}
h -t 0.529936000000001 -s 2 -d 1 -p ack -e 40 -c 1 -i 72 -a 1 -x {2.0 1.0 -1 ------- null}
+ -t 0.53 -s 0 -d 1 -p cbr -e 210 -c 0 -i 73 -a 0 -x {0.0 3.0 8 ------- null}
- -t 0.53 -s 0 -d 1 -p cbr -e 210 -c 0 -i 73 -a 0 -x {0.0 3.0 8 ------- null}
h -t 0.53 -s 0 -d 1 -p cbr -e 210 -c 0 -i 73 -a 0 -x {0.0 3.0 -1 ------- null}
r -t 0.530304000000001 -s 2 -d 1 -p ack -e 40 -c 1 -i 68 -a 1 -x {2.0 1.0 21 ------- null}
+ -t 0.530304000000001 -s 1 -d 2 -p tcp -e 1040 -c 1 -i 74 -a 1 -x {1.0 2.0 41 ------- null}
- -t 0.530432000000001 -s 1 -d 2 -p tcp -e 1040 -c 1 -i 50 -a 1 -x {1.0 2.0 27 ------- null}
h -t 0.530432000000001 -s 1 -d 2 -p tcp -e 1040 -c 1 -i 50 -a 1 -x {1.0 2.0 -1 ------- null}
r -t 0.530586 -s 1 -d 3 -p cbr -e 210 -c 0 -i 61 -a 0 -x {0.0 3.0 7 ------- null}
r -t 0.530768000000001 -s 1 -d 2 -p tcp -e 1040 -c 1 -i 44 -a 1 -x {1.0 2.0 24 ------- null}
+ -t 0.530768000000001 -s 2 -d 1 -p ack -e 40 -c 1 -i 75 -a 1 -x {2.0 1.0 24 ------- null}
- -t 0.530768000000001 -s 2 -d 1 -p ack -e 40 -c 1 -i 75 -a 1 -x {2.0 1.0 24 ------- null}
h -t 0.530768000000001 -s 2 -d 1 -p ack -e 40 -c 1 -i 75 -a 1 -x {2.0 1.0 -1 ------- null}
r -t 0.531136000000001 -s 2 -d 1 -p ack -e 40 -c 1 -i 70 -a 1 -x {2.0 1.0 22 ------- null}
+ -t 0.531136000000001 -s 1 -d 2 -p tcp -e 1040 -c 1 -i 76 -a 1 -x {1.0 2.0 42 ------- null}
- -t 0.531264000000001 -s 1 -d 2 -p tcp -e 1040 -c 1 -i 51 -a 1 -x {1.0 2.0 28 ------- null}
h -t 0.531264000000001 -s 1 -d 2 -p tcp -e 1040 -c 1 -i 51 -a 1 -x {1.0 2.0 -1 ------- null}
r -t 0.531600000000001 -s 1 -d 2 -p tcp -e 1040 -c 1 -i 47 -a 1 -x {1.0 2.0 25 ------- null}
+ -t 0.531600000000001 -s 2 -d 1 -p ack -e 40 -c 1 -i 77 -a 1 -x {2.0 1.0 25 ------- null}
- -t 0.531600000000001 -s 2 -d 1 -p ack -e 40 -c 1 -i 77 -a 1 -x {2.0 1.0 25 ------- null}
h -t 0.531600000000001 -s 2 -d 1 -p ack -e 40 -c 1 -i 77 -a 1 -x {2.0 1.0 -1 ------- null}
r -t 0.531968000000001 -s 2 -d 1 -p ack -e 40 -c 1 -i 72 -a 1 -x {2.0 1.0 23 ------- null}
+ -t 0.531968000000001 -s 1 -d 2 -p tcp -e 1040 -c 1 -i 78 -a 1 -x {1.0 2.0 43 ------- null}
- -t 0.532096000000001 -s 1 -d 2 -p tcp -e 1040 -c 1 -i 53 -a 1 -x {1.0 2.0 29 ------- null}
h -t 0.532096000000001 -s 1 -d 2 -p tcp -e 1040 -c 1 -i 53 -a 1 -x {1.0 2.0 -1 ------- null}
r -t 0.532168 -s 0 -d 1 -p cbr -e 210 -c 0 -i 73 -a 0 -x {0.0 3.0 8 ------- null}
+ -t 0.532168 -s 1 -d 3 -p cbr -e 210 -c 0 -i 73 -a 0 -x {0.0 3.0 8 ------- null}
- -t 0.532168 -s 1 -d 3 -p cbr -e 210 -c 0 -i 73 -a 0 -x {0.0 3.0 8 ------- null}
h -t 0.532168 -s 1 -d 3 -p cbr -e 210 -c 0 -i 73 -a 0 -x {0.0 3.0 -1 ------- null}
r -t 0.532432000000001 -s 1 -d 2 -p tcp -e 1040 -c 1 -i 48 -a 1 -x {1.0 2.0 26 ------- null}
+ -t 0.532432000000001 -s 2 -d 1 -p ack -e 40 -c 1 -i 79 -a 1 -x {2.0 1.0 26 ------- null}
- -t 0.532432000000001 -s 2 -d 1 -p ack -e 40 -c 1 -i 79 -a 1 -x {2.0 1.0 26 ------- null}
h -t 0.532432000000001 -s 2 -d 1 -p ack -e 40 -c 1 -i 79 -a 1 -x {2.0 1.0 -1 ------- null}
r -t 0.532800000000001 -s 2 -d 1 -p ack -e 40 -c 1 -i 75 -a 1 -x {2.0 1.0 24 ------- null}
+ -t 0.532800000000001 -s 1 -d 2 -p tcp -e 1040 -c 1 -i 80 -a 1 -x {1.0 2.0 44 ------- null}
- -t 0.532928000000001 -s 1 -d 2 -p tcp -e 1040 -c 1 -i 54 -a 1 -x {1.0 2.0 30 ------- null}
h -t 0.532928000000001 -s 1 -d 2 -p tcp -e 1040 -c 1 -i 54 -a 1 -x {1.0 2.0 -1 ------- null}
r -t 0.533264000000001 -s 1 -d 2 -p tcp -e 1040 -c 1 -i 50 -a 1 -x {1.0 2.0 27 ------- null}
+ -t 0.533264000000001 -s 2 -d 1 -p ack -e 40 -c 1 -i 81 -a 1 -x {2.0 1.0 27 ------- null}
- -t 0.533264000000001 -s 2 -d 1 -p ack -e 40 -c 1 -i 81 -a 1 -x {2.0 1.0 27 ------- null}
h -t 0.533264000000001 -s 2 -d 1 -p ack -e 40 -c 1 -i 81 -a 1 -x {2.0 1.0 -1 ------- null}
r -t 0.533632000000001 -s 2 -d 1 -p ack -e 40 -c 1 -i 77 -a 1 -x {2.0 1.0 25 ------- null}
+ -t 0.533632000000001 -s 1 -d 2 -p tcp -e 1040 -c 1 -i 82 -a 1 -x {1.0 2.0 45 ------- null}
+ -t 0.53375 -s 0 -d 1 -p cbr -e 210 -c 0 -i 83 -a 0 -x {0.0 3.0 9 ------- null}
- -t 0.53375 -s 0 -d 1 -p cbr -e 210 -c 0 -i 83 -a 0 -x {0.0 3.0 9 ------- null}
h -t 0.53375 -s 0 -d 1 -p cbr -e 210 -c 0 -i 83 -a 0 -x {0.0 3.0 -1 ------- null}
- -t 0.533760000000001 -s 1 -d 2 -p tcp -e 1040 -c 1 -i 56 -a 1 -x {1.0 2.0 31 ------- null}
h -t 0.533760000000001 -s 1 -d 2 -p tcp -e 1040 -c 1 -i 56 -a 1 -x {1.0 2.0 -1 ------- null}
r -t 0.534096000000001 -s 1 -d 2 -p tcp -e 1040 -c 1 -i 51 -a 1 -x {1.0 2.0 28 ------- null}
+ -t 0.534096000000001 -s 2 -d 1 -p ack -e 40 -c 1 -i 84 -a 1 -x {2.0 1.0 28 ------- null}
- -t 0.534096000000001 -s 2 -d 1 -p ack -e 40 -c 1 -i 84 -a 1 -x {2.0 1.0 28 ------- null}
h -t 0.534096000000001 -s 2 -d 1 -p ack -e 40 -c 1 -i 84 -a 1 -x {2.0 1.0 -1 ------- null}
r -t 0.534336 -s 1 -d 3 -p cbr -e 210 -c 0 -i 73 -a 0 -x {0.0 3.0 8 ------- null}
r -t 0.534464000000001 -s 2 -d 1 -p ack -e 40 -c 1 -i 79 -a 1 -x {2.0 1.0 26 ------- null}
+ -t 0.534464000000001 -s 1 -d 2 -p tcp -e 1040 -c 1 -i 85 -a 1 -x {1.0 2.0 46 ------- null}
- -t 0.534592000000001 -s 1 -d 2 -p tcp -e 1040 -c 1 -i 57 -a 1 -x {1.0 2.0 32 ------- null}
h -t 0.534592000000001 -s 1 -d 2 -p tcp -e 1040 -c 1 -i 57 -a 1 -x {1.0 2.0 -1 ------- null}
r -t 0.534928000000001 -s 1 -d 2 -p tcp -e 1040 -c 1 -i 53 -a 1 -x {1.0 2.0 29 ------- null}
+ -t 0.534928000000001 -s 2 -d 1 -p ack -e 40 -c 1 -i 86 -a 1 -x {2.0 1.0 29 ------- null}
- -t 0.534928000000001 -s 2 -d 1 -p ack -e 40 -c 1 -i 86 -a 1 -x {2.0 1.0 29 ------- null}
h -t 0.534928000000001 -s 2 -d 1 -p ack -e 40 -c 1 -i 86 -a 1 -x {2.0 1.0 -1 ------- null}
r -t 0.535296000000001 -s 2 -d 1 -p ack -e 40 -c 1 -i 81 -a 1 -x {2.0 1.0 27 ------- null}
+ -t 0.535296000000001 -s 1 -d 2 -p tcp -e 1040 -c 1 -i 87 -a 1 -x {1.0 2.0 47 ------- null}
- -t 0.535424000000001 -s 1 -d 2 -p tcp -e 1040 -c 1 -i 59 -a 1 -x {1.0 2.0 33 ------- null}
h -t 0.535424000000001 -s 1 -d 2 -p tcp -e 1040 -c 1 -i 59 -a 1 -x {1.0 2.0 -1 ------- null}
r -t 0.535760000000001 -s 1 -d 2 -p tcp -e 1040 -c 1 -i 54 -a 1 -x {1.0 2.0 30 ------- null}
+ -t 0.535760000000001 -s 2 -d 1 -p ack -e 40 -c 1 -i 88 -a 1 -x {2.0 1.0 30 ------- null}
- -t 0.535760000000001 -s 2 -d 1 -p ack -e 40 -c 1 -i 88 -a 1 -x {2.0 1.0 30 ------- null}
h -t 0.535760000000001 -s 2 -d 1 -p ack -e 40 -c 1 -i 88 -a 1 -x {2.0 1.0 -1 ------- null}
r -t 0.535918 -s 0 -d 1 -p cbr -e 210 -c 0 -i 83 -a 0 -x {0.0 3.0 9 ------- null}