+ 0.5 0 1 cbr 210 ------- 0 0.0 3.0 0 0
- 0.5 0 1 cbr 210 ------- 0 0.0 3.0 0 0
+ 0.5 1 2 tcp 40 ------- 1 1.0 2.0 0 1
- 0.5 1 2 tcp 40 ------- 1 1.0 2.0 0 1
r 0.502032 1 2 tcp 40 ------- 1 1.0 2.0 0 1
+ 0.502032 2 1 ack 40 ------- 1 2.0 1.0 0 2
- 0.502032 2 1 ack 40 ------- 1 2.0 1.0 0 2
r 0.502168 0 1 cbr 210 ------- 0 0.0 3.0 0 0
+ 0.502168 1 3 cbr 210 ------- 0 0.0 3.0 0 0
- 0.502168 1 3 cbr 210 ------- 0 0.0 3.0 0 0
+ 0.50375 0 1 cbr 210 ------- 0 0.0 3.0 1 3
- 0.50375 0 1 cbr 210 ------- 0 0.0 3.0 1 3
r 0.504064 2 1 ack 40 ------- 1 2.0 1.0 0 2
+ 0.504064 1 2 tcp 1040 ------- 1 1.0 2.0 1 4
- 0.504064 1 2 tcp 1040 ------- 1 1.0 2.0 1 4
+ 0.504064 1 2 tcp 1040 ------- 1 1.0 2.0 2 5
r 0.504336 1 3 cbr 210 ------- 0 0.0 3.0 0 0
- 0.504896 1 2 tcp 1040 ------- 1 1.0 2.0 2 5
r 0.505918 0 1 cbr 210 ------- 0 0.0 3.0 1 3
+ 0.505918 1 3 cbr 210 ------- 0 0.0 3.0 1 3
- 0.505918 1 3 cbr 210 ------- 0 0.0 3.0 1 3
r 0.506896 1 2 tcp 1040 ------- 1 1.0 2.0 1 4
+ 0.506896 2 1 ack 40 ------- 1 2.0 1.0 1 6
- 0.506896 2 1 ack 40 ------- 1 2.0 1.0 1 6
+ 0.5075 0 1 cbr 210 ------- 0 0.0 3.0 2 7
- 0.5075 0 1 cbr 210 ------- 0 0.0 3.0 2 7
r 0.507728 1 2 tcp 1040 ------- 1 1.0 2.0 2 5
+ 0.507728 2 1 ack 40 ------- 1 2.0 1.0 2 8
- 0.507728 2 1 ack 40 ------- 1 2.0 1.0 2 8
r 0.508086 1 3 cbr 210 ------- 0 0.0 3.0 1 3
r 0.508928 2 1 ack 40 ------- 1 2.0 1.0 1 6
+ 0.508928 1 2 tcp 1040 ------- 1 1.0 2.0 3 9
- 0.508928 1 2 tcp 1040 ------- 1 1.0 2.0 3 9
+ 0.508928 1 2 tcp 1040 ------- 1 1.0 2.0 4 10
r 0.509668 0 1 cbr 210 ------- 0 0.0 3.0 2 7
+ 0.509668 1 3 cbr 210 ------- 0 0.0 3.0 2 7
- 0.509668 1 3 cbr 210 ------- 0 0.0 3.0 2 7
r 0.50976 2 1 ack 40 ------- 1 2.0 1.0 2 8
+ 0.50976 1 2 tcp 1040 ------- 1 1.0 2.0 5 11
+ 0.50976 1 2 tcp 1040 ------- 1 1.0 2.0 6 12
- 0.50976 1 2 tcp 1040 ------- 1 1.0 2.0 4 10
- 0.510592 1 2 tcp 1040 ------- 1 1.0 2.0 5 11
+ 0.51125 0 1 cbr 210 ------- 0 0.0 3.0 3 13
- 0.51125 0 1 cbr 210 ------- 0 0.0 3.0 3 13
- 0.511424 1 2 tcp 1040 ------- 1 1.0 2.0 6 12
r 0.51176 1 2 tcp 1040 ------- 1 1.0 2.0 3 9
+ 0.51176 2 1 ack 40 ------- 1 2.0 1.0 3 14
- 0.51176 2 1 ack 40 ------- 1 2.0 1.0 3 14
r 0.511836 1 3 cbr 210 ------- 0 0.0 3.0 2 7
r 0.512592 1 2 tcp 1040 ------- 1 1.0 2.0 4 10
+ 0.512592 2 1 ack 40 ------- 1 2.0 1.0 4 15
- 0.512592 2 1 ack 40 ------- 1 2.0 1.0 4 15
r 0.513418 0 1 cbr 210 ------- 0 0.0 3.0 3 13
+ 0.513418 1 3 cbr 210 ------- 0 0.0 3.0 3 13
- 0.513418 1 3 cbr 210 ------- 0 0.0 3.0 3 13
r 0.513424 1 2 tcp 1040 ------- 1 1.0 2.0 5 11
+ 0.513424 2 1 ack 40 ------- 1 2.0 1.0 5 16
- 0.513424 2 1 ack 40 ------- 1 2.0 1.0 5 16
r 0.513792 2 1 ack 40 ------- 1 2.0 1.0 3 14
+ 0.513792 1 2 tcp 1040 ------- 1 1.0 2.0 7 17
- 0.513792 1 2 tcp 1040 ------- 1 1.0 2.0 7 17
+ 0.513792 1 2 tcp 1040 ------- 1 1.0 2.0 8 18
r 0.514256 1 2 tcp 1040 ------- 1 1.0 2.0 6 12
+ 0.514256 2 1 ack 40 ------- 1 2.0 1.0 6 19
- 0.514256 2 1 ack 40 ------- 1 2.0 1.0 6 19
r 0.514624 2 1 ack 40 ------- 1 2.0 1.0 4 15
+ 0.514624 1 2 tcp 1040 ------- 1 1.0 2.0 9 20
+ 0.514624 1 2 tcp 1040 ------- 1 1.0 2.0 10 21
- 0.514624 1 2 tcp 1040 ------- 1 1.0 2.0 8 18
+ 0.515 0 1 cbr 210 ------- 0 0.0 3.0 4 22
- 0.515 0 1 cbr 210 ------- 0 0.0 3.0 4 22
r 0.515456 2 1 ack 40 ------- 1 2.0 1.0 5 16
+ 0.515456 1 2 tcp 1040 ------- 1 1.0 2.0 11 23
+ 0.515456 1 2 tcp 1040 ------- 1 1.0 2.0 12 24
- 0.515456 1 2 tcp 1040 ------- 1 1.0 2.0 9 20
r 0.515586 1 3 cbr 210 ------- 0 0.0 3.0 3 13
r 0.516288 2 1 ack 40 ------- 1 2.0 1.0 6 19
+ 0.516288 1 2 tcp 1040 ------- 1 1.0 2.0 13 25
+ 0.516288 1 2 tcp 1040 ------- 1 1.0 2.0 14 26
- 0.516288 1 2 tcp 1040 ------- 1 1.0 2.0 10 21
r 0.516624 1 2 tcp 1040 ------- 1 1.0 2.0 7 17
+ 0.516624 2 1 ack 40 ------- 1 2.0 1.0 7 27
- 0.516624 2 1 ack 40 ------- 1 2.0 1.0 7 27
- 0.51712 1 2 tcp 1040 ------- 1 1.0 2.0 11 23
r 0.517168 0 1 cbr 210 ------- 0 0.0 3.0 4 22
+ 0.517168 1 3 cbr 210 ------- 0 0.0 3.0 4 22
- 0.517168 1 3 cbr 210 ------- 0 0.0 3.0 4 22
r 0.517456 1 2 tcp 1040 ------- 1 1.0 2.0 8 18
+ 0.517456 2 1 ack 40 ------- 1 2.0 1.0 8 28
- 0.517456 2 1 ack 40 ------- 1 2.0 1.0 8 28
- 0.517952 1 2 tcp 1040 ------- 1 1.0 2.0 12 24
r 0.518288 1 2 tcp 1040 ------- 1 1.0 2.0 9 20
+ 0.518288 2 1 ack 40 ------- 1 2.0 1.0 9 29
- 0.518288 2 1 ack 40 ------- 1 2.0 1.0 9 29
r 0.518656 2 1 ack 40 ------- 1 2.0 1.0 7 27
+ 0.518656 1 2 tcp 1040 ------- 1 1.0 2.0 15 30
+ 0.518656 1 2 tcp 1040 ------- 1 1.0 2.0 16 31
+ 0.51875 0 1 cbr 210 ------- 0 0.0 3.0 5 32
- 0.51875 0 1 cbr 210 ------- 0 0.0 3.0 5 32
- 0.518784 1 2 tcp 1040 ------- 1 1.0 2.0 13 25
r 0.51912 1 2 tcp 1040 ------- 1 1.0 2.0 10 21
+ 0.51912 2 1 ack 40 ------- 1 2.0 1.0 10 33
- 0.51912 2 1 ack 40 ------- 1 2.0 1.0 10 33
r 0.519336 1 3 cbr 210 ------- 0 0.0 3.0 4 22
r 0.519488 2 1 ack 40 ------- 1 2.0 1.0 8 28
+ 0.519488 1 2 tcp 1040 ------- 1 1.0 2.0 17 34
+ 0.519488 1 2 tcp 1040 ------- 1 1.0 2.0 18 35
- 0.519616 1 2 tcp 1040 ------- 1 1.0 2.0 14 26
r 0.519952 1 2 tcp 1040 ------- 1 1.0 2.0 11 23
+ 0.519952 2 1 ack 40 ------- 1 2.0 1.0 11 36
- 0.519952 2 1 ack 40 ------- 1 2.0 1.0 11 36
r 0.52032 2 1 ack 40 ------- 1 2.0 1.0 9 29
+ 0.52032 1 2 tcp 1040 ------- 1 1.0 2.0 19 37
+ 0.52032 1 2 tcp 1040 ------- 1 1.0 2.0 20 38
- 0.520448 1 2 tcp 1040 ------- 1 1.0 2.0 15 30
r 0.520784 1 2 tcp 1040 ------- 1 1.0 2.0 12 24
+ 0.520784 2 1 ack 40 ------- 1 2.0 1.0 12 39
- 0.520784 2 1 ack 40 ------- 1 2.0 1.0 12 39
r 0.520918 0 1 cbr 210 ------- 0 0.0 3.0 5 32
+ 0.520918 1 3 cbr 210 ------- 0 0.0 3.0 5 32
- 0.520918 1 3 cbr 210 ------- 0 0.0 3.0 5 32
r 0.521152 2 1 ack 40 ------- 1 2.0 1.0 10 33
+ 0.521152 1 2 tcp 1040 ------- 1 1.0 2.0 21 40
+ 0.521152 1 2 tcp 1040 ------- 1 1.0 2.0 22 41
- 0.52128 1 2 tcp 1040 ------- 1 1.0 2.0 16 31
r 0.521616 1 2 tcp 1040 ------- 1 1.0 2.0 13 25
+ 0.521616 2 1 ack 40 ------- 1 2.0 1.0 13 42
- 0.521616 2 1 ack 40 ------- 1 2.0 1.0 13 42
r 0.521984 2 1 ack 40 ------- 1 2.0 1.0 11 36
+ 0.521984 1 2 tcp 1040 ------- 1 1.0 2.0 23 43
+ 0.521984 1 2 tcp 1040 ------- 1 1.0 2.0 24 44
- 0.522112 1 2 tcp 1040 ------- 1 1.0 2.0 17 34
r 0.522448 1 2 tcp 1040 ------- 1 1.0 2.0 14 26
+ 0.522448 2 1 ack 40 ------- 1 2.0 1.0 14 45
- 0.522448 2 1 ack 40 ------- 1 2.0 1.0 14 45
+ 0.5225 0 1 cbr 210 ------- 0 0.0 3.0 6 46
- 0.5225 0 1 cbr 210 ------- 0 0.0 3.0 6 46
r 0.522816 2 1 ack 40 ------- 1 2.0 1.0 12 39
+ 0.522816 1 2 tcp 1040 ------- 1 1.0 2.0 25 47
+ 0.522816 1 2 tcp 1040 ------- 1 1.0 2.0 26 48
- 0.522944 1 2 tcp 1040 ------- 1 1.0 2.0 18 35
r 0.523086 1 3 cbr 210 ------- 0 0.0 3.0 5 32
r 0.52328 1 2 tcp 1040 ------- 1 1.0 2.0 15 30
+ 0.52328 2 1 ack 40 ------- 1 2.0 1.0 15 49
- 0.52328 2 1 ack 40 ------- 1 2.0 1.0 15 49
r 0.523648 2 1 ack 40 ------- 1 2.0 1.0 13 42
+ 0.523648 1 2 tcp 1040 ------- 1 1.0 2.0 27 50
+ 0.523648 1 2 tcp 1040 ------- 1 1.0 2.0 28 51
- 0.523776 1 2 tcp 1040 ------- 1 1.0 2.0 19 37
r 0.524112 1 2 tcp 1040 ------- 1 1.0 2.0 16 31
+ 0.524112 2 1 ack 40 ------- 1 2.0 1.0 16 52
- 0.524112 2 1 ack 40 ------- 1 2.0 1.0 16 52
r 0.52448 2 1 ack 40 ------- 1 2.0 1.0 14 45
+ 0.52448 1 2 tcp 1040 ------- 1 1.0 2.0 29 53
+ 0.52448 1 2 tcp 1040 ------- 1 1.0 2.0 30 54
- 0.524608 1 2 tcp 1040 ------- 1 1.0 2.0 20 38
r 0.524668 0 1 cbr 210 ------- 0 0.0 3.0 6 46
+ 0.524668 1 3 cbr 210 ------- 0 0.0 3.0 6 46
- 0.524668 1 3 cbr 210 ------- 0 0.0 3.0 6 46
r 0.524944 1 2 tcp 1040 ------- 1 1.0 2.0 17 34
+ 0.524944 2 1 ack 40 ------- 1 2.0 1.0 17 55
- 0.524944 2 1 ack 40 ------- 1 2.0 1.0 17 55
r 0.525312 2 1 ack 40 ------- 1 2.0 1.0 15 49
+ 0.525312 1 2 tcp 1040 ------- 1 1.0 2.0 31 56
+ 0.525312 1 2 tcp 1040 ------- 1 1.0 2.0 32 57
- 0.52544 1 2 tcp 1040 ------- 1 1.0 2.0 21 40
r 0.525776 1 2 tcp 1040 ------- 1 1.0 2.0 18 35
+ 0.525776 2 1 ack 40 ------- 1 2.0 1.0 18 58
- 0.525776 2 1 ack 40 ------- 1 2.0 1.0 18 58
r 0.526144 2 1 ack 40 ------- 1 2.0 1.0 16 52
+ 0.526144 1 2 tcp 1040 ------- 1 1.0 2.0 33 59
+ 0.526144 1 2 tcp 1040 ------- 1 1.0 2.0 34 60
+ 0.52625 0 1 cbr 210 ------- 0 0.0 3.0 7 61
- 0.52625 0 1 cbr 210 ------- 0 0.0 3.0 7 61
- 0.526272 1 2 tcp 1040 ------- 1 1.0 2.0 22 41
r 0.526608 1 2 tcp 1040 ------- 1 1.0 2.0 19 37
+ 0.526608 2 1 ack 40 ------- 1 2.0 1.0 19 62
- 0.526608 2 1 ack 40 ------- 1 2.0 1.0 19 62
r 0.526836 1 3 cbr 210 ------- 0 0.0 3.0 6 46
r 0.526976 2 1 ack 40 ------- 1 2.0 1.0 17 55
+ 0.526976 1 2 tcp 1040 ------- 1 1.0 2.0 35 63
+ 0.526976 1 2 tcp 1040 ------- 1 1.0 2.0 36 64
- 0.527104 1 2 tcp 1040 ------- 1 1.0 2.0 23 43
r 0.52744 1 2 tcp 1040 ------- 1 1.0 2.0 20 38
+ 0.52744 2 1 ack 40 ------- 1 2.0 1.0 20 65
- 0.52744 2 1 ack 40 ------- 1 2.0 1.0 20 65
r 0.527808 2 1 ack 40 ------- 1 2.0 1.0 18 58
+ 0.527808 1 2 tcp 1040 ------- 1 1.0 2.0 37 66
+ 0.527808 1 2 tcp 1040 ------- 1 1.0 2.0 38 67
- 0.527936 1 2 tcp 1040 ------- 1 1.0 2.0 24 44
r 0.528272 1 2 tcp 1040 ------- 1 1.0 2.0 21 40
+ 0.528272 2 1 ack 40 ------- 1 2.0 1.0 21 68
- 0.528272 2 1 ack 40 ------- 1 2.0 1.0 21 68
r 0.528418 0 1 cbr 210 ------- 0 0.0 3.0 7 61
+ 0.528418 1 3 cbr 210 ------- 0 0.0 3.0 7 61
- 0.528418 1 3 cbr 210 ------- 0 0.0 3.0 7 61
r 0.52864 2 1 ack 40 ------- 1 2.0 1.0 19 62
+ 0.52864 1 2 tcp 1040 ------- 1 1.0 2.0 39 69
- 0.528768 1 2 tcp 1040 ------- 1 1.0 2.0 25 47
r 0.529104 1 2 tcp 1040 ------- 1 1.0 2.0 22 41
+ 0.529104 2 1 ack 40 ------- 1 2.0 1.0 22 70
- 0.529104 2 1 ack 40 ------- 1 2.0 1.0 22 70
r 0.529472 2 1 ack 40 ------- 1 2.0 1.0 20 65
+ 0.529472 1 2 tcp 1040 ------- 1 1.0 2.0 40 71
- 0.5296 1 2 tcp 1040 ------- 1 1.0 2.0 26 48
r 0.529936 1 2 tcp 1040 ------- 1 1.0 2.0 23 43
+ 0.529936 2 1 ack 40 ------- 1 2.0 1.0 23 72
- 0.529936 2 1 ack 40 ------- 1 2.0 1.0 23 72
+ 0.53 0 1 cbr 210 ------- 0 0.0 3.0 8 73
- 0.53 0 1 cbr 210 ------- 0 0.0 3.0 8 73
r 0.530304 2 1 ack 40 ------- 1 2.0 1.0 21 68
+ 0.530304 1 2 tcp 1040 ------- 1 1.0 2.0 41 74
- 0.530432 1 2 tcp 1040 ------- 1 1.0 2.0 27 50
r 0.530586 1 3 cbr 210 ------- 0 0.0 3.0 7 61
r 0.530768 1 2 tcp 1040 ------- 1 1.0 2.0 24 44
+ 0.530768 2 1 ack 40 ------- 1 2.0 1.0 24 75
- 0.530768 2 1 ack 40 ------- 1 2.0 1.0 24 75
r 0.531136 2 1 ack 40 ------- 1 2.0 1.0 22 70
+ 0.531136 1 2 tcp 1040 ------- 1 1.0 2.0 42 76
- 0.531264 1 2 tcp 1040 ------- 1 1.0 2.0 28 51
r 0.5316 1 2 tcp 1040 ------- 1 1.0 2.0 25 47
+ 0.5316 2 1 ack 40 ------- 1 2.0 1.0 25 77
- 0.5316 2 1 ack 40 ------- 1 2.0 1.0 25 77
r 0.531968 2 1 ack 40 ------- 1 2.0 1.0 23 72
+ 0.531968 1 2 tcp 1040 ------- 1 1.0 2.0 43 78
- 0.532096 1 2 tcp 1040 ------- 1 1.0 2.0 29 53
r 0.532168 0 1 cbr 210 ------- 0 0.0 3.0 8 73
+ 0.532168 1 3 cbr 210 ------- 0 0.0 3.0 8 73
- 0.532168 1 3 cbr 210 ------- 0 0.0 3.0 8 73
r 0.532432 1 2 tcp 1040 ------- 1 1.0 2.0 26 48
+ 0.532432 2 1 ack 40 ------- 1 2.0 1.0 26 79
- 0.532432 2 1 ack 40 ------- 1 2.0 1.0 26 79
r 0.5328 2 1 ack 40 ------- 1 2.0 1.0 24 75
+ 0.5328 1 2 tcp 1040 ------- 1 1.0 2.0 44 80
- 0.532928 1 2 tcp 1040 ------- 1 1.0 2.0 30 54
r 0.533264 1 2 tcp 1040 ------- 1 1.0 2.0 27 50
+ 0.533264 2 1 ack 40 ------- 1 2.0 1.0 27 81
- 0.533264 2 1 ack 40 ------- 1 2.0 1.0 27 81
r 0.533632 2 1 ack 40 ------- 1 2.0 1.0 25 77
+ 0.533632 1 2 tcp 1040 ------- 1 1.0 2.0 45 82
+ 0.53375 0 1 cbr 210 ------- 0 0.0 3.0 9 83
- 0.53375 0 1 cbr 210 ------- 0 0.0 3.0 9 83
- 0.53376 1 2 tcp 1040 ------- 1 1.0 2.0 31 56
r 0.534096 1 2 tcp 1040 ------- 1 1.0 2.0 28 51
+ 0.534096 2 1 ack 40 ------- 1 2.0 1.0 28 84
- 0.534096 2 1 ack 40 ------- 1 2.0 1.0 28 84
r 0.534336 1 3 cbr 210 ------- 0 0.0 3.0 8 73
r 0.534464 2 1 ack 40 ------- 1 2.0 1.0 26 79
+ 0.534464 1 2 tcp 1040 ------- 1 1.0 2.0 46 85
- 0.534592 1 2 tcp 1040 ------- 1 1.0 2.0 32 57
r 0.534928 1 2 tcp 1040 ------- 1 1.0 2.0 29 53
+ 0.534928 2 1 ack 40 ------- 1 2.0 1.0 29 86
- 0.534928 2 1 ack 40 ------- 1 2.0 1.0 29 86
r 0.535296 2 1 ack 40 ------- 1 2.0 1.0 27 81
+ 0.535296 1 2 tcp 1040 ------- 1 1.0 2.0 47 87
- 0.535424 1 2 tcp 1040 ------- 1 1.0 2.0 33 59
r 0.53576 1 2 tcp 1040 ------- 1 1.0 2.0 30 54
+ 0.53576 2 1 ack 40 ------- 1 2.0 1.0 30 88
- 0.53576 2 1 ack 40 ------- 1 2.0 1.0 30 88
r 0.535918 0 1 cbr 210 ------- 0 0.0 3.0 9 83
+ 0.535918 1 3 cbr 210 ------- 0 0.0 3.0 9 83
- 0.535918 1 3 cbr 210 ------- 0 0.0 3.0 9 83
r 0.536128 2 1 ack 40 ------- 1 2.0 1.0 28 84
+ 0.536128 1 2 tcp 1040 ------- 1 1.0 2.0 48 89
- 0.536256 1 2 tcp 1040 ------- 1 1.0 2.0 34 60
r 0.536592 1 2 tcp 1040 ------- 1 1.0 2.0 31 56
+ 0.536592 2 1 ack 40 ------- 1 2.0 1.0 31 90
- 0.536592 2 1 ack 40 ------- 1 2.0 1.0 31 90
r 0.53696 2 1 ack 40 ------- 1 2.0 1.0 29 86
+ 0.53696 1 2 tcp 1040 ------- 1 1.0 2.0 49 91
- 0.537088 1 2 tcp 1040 ------- 1 1.0 2.0 35 63
r 0.537424 1 2 tcp 1040 ------- 1 1.0 2.0 32 57
+ 0.537424 2 1 ack 40 ------- 1 2.0 1.0 32 92
- 0.537424 2 1 ack 40 ------- 1 2.0 1.0 32 92
+ 0.5375 0 1 cbr 210 ------- 0 0.0 3.0 10 93
- 0.5375 0 1 cbr 210 ------- 0 0.0 3.0 10 93
r 0.537792 2 1 ack 40 ------- 1 2.0 1.0 30 88
+ 0.537792 1 2 tcp 1040 ------- 1 1.0 2.0 50 94
- 0.53792 1 2 tcp 1040 ------- 1 1.0 2.0 36 64
r 0.538086 1 3 cbr 210 ------- 0 0.0 3.0 9 83
r 0.538256 1 2 tcp 1040 ------- 1 1.0 2.0 33 59
+ 0.538256 2 1 ack 40 ------- 1 2.0 1.0 33 95
- 0.538256 2 1 ack 40 ------- 1 2.0 1.0 33 95
r 0.538624 2 1 ack 40 ------- 1 2.0 1.0 31 90
+ 0.538624 1 2 tcp 1040 ------- 1 1.0 2.0 51 96
- 0.538752 1 2 tcp 1040 ------- 1 1.0 2.0 37 66
r 0.539088 1 2 tcp 1040 ------- 1 1.0 2.0 34 60
+ 0.539088 2 1 ack 40 ------- 1 2.0 1.0 34 97
- 0.539088 2 1 ack 40 ------- 1 2.0 1.0 34 97
r 0.539456 2 1 ack 40 ------- 1 2.0 1.0 32 92
+ 0.539456 1 2 tcp 1040 ------- 1 1.0 2.0 52 98
- 0.539584 1 2 tcp 1040 ------- 1 1.0 2.0 38 67
r 0.539668 0 1 cbr 210 ------- 0 0.0 3.0 10 93
+ 0.539668 1 3 cbr 210 ------- 0 0.0 3.0 10 93
- 0.539668 1 3 cbr 210 ------- 0 0.0 3.0 10 93
r 0.53992 1 2 tcp 1040 ------- 1 1.0 2.0 35 63
+ 0.53992 2 1 ack 40 ------- 1 2.0 1.0 35 99
- 0.53992 2 1 ack 40 ------- 1 2.0 1.0 35 99
r 0.540288 2 1 ack 40 ------- 1 2.0 1.0 33 95
+ 0.540288 1 2 tcp 1040 ------- 1 1.0 2.0 53 100
- 0.540416 1 2 tcp 1040 ------- 1 1.0 2.0 39 69
r 0.540752 1 2 tcp 1040 ------- 1 1.0 2.0 36 64
+ 0.540752 2 1 ack 40 ------- 1 2.0 1.0 36 101
- 0.540752 2 1 ack 40 ------- 1 2.0 1.0 36 101
r 0.54112 2 1 ack 40 ------- 1 2.0 1.0 34 97
+ 0.54112 1 2 tcp 1040 ------- 1 1.0 2.0 54 102
- 0.541248 1 2 tcp 1040 ------- 1 1.0 2.0 40 71
+ 0.54125 0 1 cbr 210 ------- 0 0.0 3.0 11 103
- 0.54125 0 1 cbr 210 ------- 0 0.0 3.0 11 103
r 0.541584 1 2 tcp 1040 ------- 1 1.0 2.0 37 66
+ 0.541584 2 1 ack 40 ------- 1 2.0 1.0 37 104
- 0.541584 2 1 ack 40 ------- 1 2.0 1.0 37 104
r 0.541836 1 3 cbr 210 ------- 0 0.0 3.0 10 93
r 0.541952 2 1 ack 40 ------- 1 2.0 1.0 35 99
+ 0.541952 1 2 tcp 1040 ------- 1 1.0 2.0 55 105
- 0.54208 1 2 tcp 1040 ------- 1 1.0 2.0 41 74
r 0.542416 1 2 tcp 1040 ------- 1 1.0 2.0 38 67
+ 0.542416 2 1 ack 40 ------- 1 2.0 1.0 38 106
- 0.542416 2 1 ack 40 ------- 1 2.0 1.0 38 106
r 0.542784 2 1 ack 40 ------- 1 2.0 1.0 36 101
+ 0.542784 1 2 tcp 1040 ------- 1 1.0 2.0 56 107
- 0.542912 1 2 tcp 1040 ------- 1 1.0 2.0 42 76
r 0.543248 1 2 tcp 1040 ------- 1 1.0 2.0 39 69
+ 0.543248 2 1 ack 40 ------- 1 2.0 1.0 39 108
- 0.543248 2 1 ack 40 ------- 1 2.0 1.0 39 108
r 0.543418 0 1 cbr 210 ------- 0 0.0 3.0 11 103
+ 0.543418 1 3 cbr 210 ------- 0 0.0 3.0 11 103
- 0.543418 1 3 cbr 210 ------- 0 0.0 3.0 11 103
r 0.543616 2 1 ack 40 ------- 1 2.0 1.0 37 104
+ 0.543616 1 2 tcp 1040 ------- 1 1.0 2.0 57 109
- 0.543744 1 2 tcp 1040 ------- 1 1.0 2.0 43 78
r 0.54408 1 2 tcp 1040 ------- 1 1.0 2.0 40 71
+ 0.54408 2 1 ack 40 ------- 1 2.0 1.0 40 110
- 0.54408 2 1 ack 40 ------- 1 2.0 1.0 40 110
r 0.544448 2 1 ack 40 ------- 1 2.0 1.0 38 106
+ 0.544448 1 2 tcp 1040 ------- 1 1.0 2.0 58 111
- 0.544576 1 2 tcp 1040 ------- 1 1.0 2.0 44 80
r 0.544912 1 2 tcp 1040 ------- 1 1.0 2.0 41 74
+ 0.544912 2 1 ack 40 ------- 1 2.0 1.0 41 112
- 0.544912 2 1 ack 40 ------- 1 2.0 1.0 41 112
+ 0.545 0 1 cbr 210 ------- 0 0.0 3.0 12 113
- 0.545 0 1 cbr 210 ------- 0 0.0 3.0 12 113
r 0.54528 2 1 ack 40 ------- 1 2.0 1.0 39 108
+ 0.54528 1 2 tcp 1040 ------- 1 1.0 2.0 59 114
- 0.545408 1 2 tcp 1040 ------- 1 1.0 2.0 45 82
r 0.545586 1 3 cbr 210 ------- 0 0.0 3.0 11 103
r 0.545744 1 2 tcp 1040 ------- 1 1.0 2.0 42 76
+ 0.545744 2 1 ack 40 ------- 1 2.0 1.0 42 115
- 0.545744 2 1 ack 40 ------- 1 2.0 1.0 42 115
r 0.546112 2 1 ack 40 ------- 1 2.0 1.0 40 110
+ 0.546112 1 2 tcp 1040 ------- 1 1.0 2.0 60 116
- 0.54624 1 2 tcp 1040 ------- 1 1.0 2.0 46 85
r 0.546576 1 2 tcp 1040 ------- 1 1.0 2.0 43 78
+ 0.546576 2 1 ack 40 ------- 1 2.0 1.0 43 117
- 0.546576 2 1 ack 40 ------- 1 2.0 1.0 43 117
r 0.546944 2 1 ack 40 ------- 1 2.0 1.0 41 112
+ 0.546944 1 2 tcp 1040 ------- 1 1.0 2.0 61 118
- 0.547072 1 2 tcp 1040 ------- 1 1.0 2.0 47 87
r 0.547168 0 1 cbr 210 ------- 0 0.0 3.0 12 113
+ 0.547168 1 3 cbr 210 ------- 0 0.0 3.0 12 113
- 0.547168 1 3 cbr 210 ------- 0 0.0 3.0 12 113
r 0.547408 1 2 tcp 1040 ------- 1 1.0 2.0 44 80
+ 0.547408 2 1 ack 40 ------- 1 2.0 1.0 44 119
- 0.547408 2 1 ack 40 ------- 1 2.0 1.0 44 119
r 0.547776 2 1 ack 40 ------- 1 2.0 1.0 42 115
+ 0.547776 1 2 tcp 1040 ------- 1 1.0 2.0 62 120
- 0.547904 1 2 tcp 1040 ------- 1 1.0 2.0 48 89
r 0.54824 1 2 tcp 1040 ------- 1 1.0 2.0 45 82
+ 0.54824 2 1 ack 40 ------- 1 2.0 1.0 45 121
- 0.54824 2 1 ack 40 ------- 1 2.0 1.0 45 121
r 0.548608 2 1 ack 40 ------- 1 2.0 1.0 43 117
+ 0.548608 1 2 tcp 1040 ------- 1 1.0 2.0 63 122
- 0.548736 1 2 tcp 1040 ------- 1 1.0 2.0 49 91
+ 0.54875 0 1 cbr 210 ------- 0 0.0 3.0 13 123
- 0.54875 0 1 cbr 210 ------- 0 0.0 3.0 13 123
r 0.549072 1 2 tcp 1040 ------- 1 1.0 2.0 46 85
+ 0.549072 2 1 ack 40 ------- 1 2.0 1.0 46 124
- 0.549072 2 1 ack 40 ------- 1 2.0 1.0 46 124
r 0.549336 1 3 cbr 210 ------- 0 0.0 3.0 12 113
r 0.54944 2 1 ack 40 ------- 1 2.0 1.0 44 119
+ 0.54944 1 2 tcp 1040 ------- 1 1.0 2.0 64 125
- 0.549568 1 2 tcp 1040 ------- 1 1.0 2.0 50 94
r 0.549904 1 2 tcp 1040 ------- 1 1.0 2.0 47 87
+ 0.549904 2 1 ack 40 ------- 1 2.0 1.0 47 126
- 0.549904 2 1 ack 40 ------- 1 2.0 1.0 47 126
r 0.550272 2 1 ack 40 ------- 1 2.0 1.0 45 121
+ 0.550272 1 2 tcp 1040 ------- 1 1.0 2.0 65 127
- 0.5504 1 2 tcp 1040 ------- 1 1.0 2.0 51 96
r 0.550736 1 2 tcp 1040 ------- 1 1.0 2.0 48 89
+ 0.550736 2 1 ack 40 ------- 1 2.0 1.0 48 128
- 0.550736 2 1 ack 40 ------- 1 2.0 1.0 48 128
r 0.550918 0 1 cbr 210 ------- 0 0.0 3.0 13 123
+ 0.550918 1 3 cbr 210 ------- 0 0.0 3.0 13 123
- 0.550918 1 3 cbr 210 ------- 0 0.0 3.0 13 123
r 0.551104 2 1 ack 40 ------- 1 2.0 1.0 46 124
+ 0.551104 1 2 tcp 1040 ------- 1 1.0 2.0 66 129
- 0.551232 1 2 tcp 1040 ------- 1 1.0 2.0 52 98
r 0.551568 1 2 tcp 1040 ------- 1 1.0 2.0 49 91
+ 0.551568 2 1 ack 40 ------- 1 2.0 1.0 49 130
- 0.551568 2 1 ack 40 ------- 1 2.0 1.0 49 130
r 0.551936 2 1 ack 40 ------- 1 2.0 1.0 47 126
+ 0.551936 1 2 tcp 1040 ------- 1 1.0 2.0 67 131
- 0.552064 1 2 tcp 1040 ------- 1 1.0 2.0 53 100
r 0.5524 1 2 tcp 1040 ------- 1 1.0 2.0 50 94
+ 0.5524 2 1 ack 40 ------- 1 2.0 1.0 50 132
- 0.5524 2 1 ack 40 ------- 1 2.0 1.0 50 132
+ 0.5525 0 1 cbr 210 ------- 0 0.0 3.0 14 133
- 0.5525 0 1 cbr 210 ------- 0 0.0 3.0 14 133
r 0.552768 2 1 ack 40 ------- 1 2.0 1.0 48 128
+ 0.552768 1 2 tcp 1040 ------- 1 1.0 2.0 68 134
- 0.552896 1 2 tcp 1040 ------- 1 1.0 2.0 54 102
r 0.553086 1 3 cbr 210 ------- 0 0.0 3.0 13 123
r 0.553232 1 2 tcp 1040 ------- 1 1.0 2.0 51 96
+ 0.553232 2 1 ack 40 ------- 1 2.0 1.0 51 135
- 0.553232 2 1 ack 40 ------- 1 2.0 1.0 51 135
r 0.5536 2 1 ack 40 ------- 1 2.0 1.0 49 130
+ 0.5536 1 2 tcp 1040 ------- 1 1.0 2.0 69 136
- 0.553728 1 2 tcp 1040 ------- 1 1.0 2.0 55 105
r 0.554064 1 2 tcp 1040 ------- 1 1.0 2.0 52 98
+ 0.554064 2 1 ack 40 ------- 1 2.0 1.0 52 137
- 0.554064 2 1 ack 40 ------- 1 2.0 1.0 52 137
r 0.554432 2 1 ack 40 ------- 1 2.0 1.0 50 132
+ 0.554432 1 2 tcp 1040 ------- 1 1.0 2.0 70 138
- 0.55456 1 2 tcp 1040 ------- 1 1.0 2.0 56 107
r 0.554668 0 1 cbr 210 ------- 0 0.0 3.0 14 133
+ 0.554668 1 3 cbr 210 ------- 0 0.0 3.0 14 133
- 0.554668 1 3 cbr 210 ------- 0 0.0 3.0 14 133
r 0.554896 1 2 tcp 1040 ------- 1 1.0 2.0 53 100
+ 0.554896 2 1 ack 40 ------- 1 2.0 1.0 53 139
- 0.554896 2 1 ack 40 ------- 1 2.0 1.0 53 139
r 0.555264 2 1 ack 40 ------- 1 2.0 1.0 51 135
+ 0.555264 1 2 tcp 1040 ------- 1 1.0 2.0 71 140
- 0.555392 1 2 tcp 1040 ------- 1 1.0 2.0 57 109
r 0.555728 1 2 tcp 1040 ------- 1 1.0 2.0 54 102
+ 0.555728 2 1 ack 40 ------- 1 2.0 1.0 54 141
- 0.555728 2 1 ack 40 ------- 1 2.0 1.0 54 141
r 0.556096 2 1 ack 40 ------- 1 2.0 1.0 52 137
+ 0.556096 1 2 tcp 1040 ------- 1 1.0 2.0 72 142
- 0.556224 1 2 tcp 1040 ------- 1 1.0 2.0 58 111
+ 0.55625 0 1 cbr 210 ------- 0 0.0 3.0 15 143
- 0.55625 0 1 cbr 210 ------- 0 0.0 3.0 15 143
r 0.55656 1 2 tcp 1040 ------- 1 1.0 2.0 55 105
+ 0.55656 2 1 ack 40 ------- 1 2.0 1.0 55 144
- 0.55656 2 1 ack 40 ------- 1 2.0 1.0 55 144
r 0.556836 1 3 cbr 210 ------- 0 0.0 3.0 14 133
r 0.556928 2 1 ack 40 ------- 1 2.0 1.0 53 139
+ 0.556928 1 2 tcp 1040 ------- 1 1.0 2.0 73 145
- 0.557056 1 2 tcp 1040 ------- 1 1.0 2.0 59 114
r 0.557392 1 2 tcp 1040 ------- 1 1.0 2.0 56 107
+ 0.557392 2 1 ack 40 ------- 1 2.0 1.0 56 146
- 0.557392 2 1 ack 40 ------- 1 2.0 1.0 56 146
r 0.55776 2 1 ack 40 ------- 1 2.0 1.0 54 141
+ 0.55776 1 2 tcp 1040 ------- 1 1.0 2.0 74 147
- 0.557888 1 2 tcp 1040 ------- 1 1.0 2.0 60 116
r 0.558224 1 2 tcp 1040 ------- 1 1.0 2.0 57 109
+ 0.558224 2 1 ack 40 ------- 1 2.0 1.0 57 148
- 0.558224 2 1 ack 40 ------- 1 2.0 1.0 57 148
r 0.558418 0 1 cbr 210 ------- 0 0.0 3.0 15 143
+ 0.558418 1 3 cbr 210 ------- 0 0.0 3.0 15 143
- 0.558418 1 3 cbr 210 ------- 0 0.0 3.0 15 143
r 0.558592 2 1 ack 40 ------- 1 2.0 1.0 55 144
+ 0.558592 1 2 tcp 1040 ------- 1 1.0 2.0 75 149
- 0.55872 1 2 tcp 1040 ------- 1 1.0 2.0 61 118
r 0.559056 1 2 tcp 1040 ------- 1 1.0 2.0 58 111
+ 0.559056 2 1 ack 40 ------- 1 2.0 1.0 58 150
- 0.559056 2 1 ack 40 ------- 1 2.0 1.0 58 150
r 0.559424 2 1 ack 40 ------- 1 2.0 1.0 56 146
+ 0.559424 1 2 tcp 1040 ------- 1 1.0 2.0 76 151
- 0.559552 1 2 tcp 1040 ------- 1 1.0 2.0 62 120
r 0.559888 1 2 tcp 1040 ------- 1 1.0 2.0 59 114
+ 0.559888 2 1 ack 40 ------- 1 2.0 1.0 59 152
- 0.559888 2 1 ack 40 ------- 1 2.0 1.0 59 152
+ 0.56 0 1 cbr 210 ------- 0 0.0 3.0 16 153
- 0.56 0 1 cbr 210 ------- 0 0.0 3.0 16 153
r 0.560256 2 1 ack 40 ------- 1 2.0 1.0 57 148
+ 0.560256 1 2 tcp 1040 ------- 1 1.0 2.0 77 154
- 0.560384 1 2 tcp 1040 ------- 1 1.0 2.0 63 122
r 0.560586 1 3 cbr 210 ------- 0 0.0 3.0 15 143
r 0.56072 1 2 tcp 1040 ------- 1 1.0 2.0 60 116
+ 0.56072 2 1 ack 40 ------- 1 2.0 1.0 60 155
- 0.56072 2 1 ack 40 ------- 1 2.0 1.0 60 155
r 0.561088 2 1 ack 40 ------- 1 2.0 1.0 58 150
+ 0.561088 1 2 tcp 1040 ------- 1 1.0 2.0 78 156
- 0.561216 1 2 tcp 1040 ------- 1 1.0 2.0 64 125
r 0.561552 1 2 tcp 1040 ------- 1 1.0 2.0 61 118
+ 0.561552 2 1 ack 40 ------- 1 2.0 1.0 61 157
- 0.561552 2 1 ack 40 ------- 1 2.0 1.0 61 157
r 0.56192 2 1 ack 40 ------- 1 2.0 1.0 59 152
+ 0.56192 1 2 tcp 1040 ------- 1 1.0 2.0 79 158
- 0.562048 1 2 tcp 1040 ------- 1 1.0 2.0 65 127
r 0.562168 0 1 cbr 210 ------- 0 0.0 3.0 16 153
+ 0.562168 1 3 cbr 210 ------- 0 0.0 3.0 16 153
- 0.562168 1 3 cbr 210 ------- 0 0.0 3.0 16 153
r 0.562384 1 2 tcp 1040 ------- 1 1.0 2.0 62 120
+ 0.562384 2 1 ack 40 ------- 1 2.0 1.0 62 159
- 0.562384 2 1 ack 40 ------- 1 2.0 1.0 62 159
r 0.562752 2 1 ack 40 ------- 1 2.0 1.0 60 155
+ 0.562752 1 2 tcp 1040 ------- 1 1.0 2.0 80 160
- 0.56288 1 2 tcp 1040 ------- 1 1.0 2.0 66 129
r 0.563216 1 2 tcp 1040 ------- 1 1.0 2.0 63 122
+ 0.563216 2 1 ack 40 ------- 1 2.0 1.0 63 161
- 0.563216 2 1 ack 40 ------- 1 2.0 1.0 63 161
r 0.563584 2 1 ack 40 ------- 1 2.0 1.0 61 157
+ 0.563584 1 2 tcp 1040 ------- 1 1.0 2.0 81 162
- 0.563712 1 2 tcp 1040 ------- 1 1.0 2.0 67 131
+ 0.56375 0 1 cbr 210 ------- 0 0.0 3.0 17 163
- 0.56375 0 1 cbr 210 ------- 0 0.0 3.0 17 163
r 0.564048 1 2 tcp 1040 ------- 1 1.0 2.0 64 125
+ 0.564048 2 1 ack 40 ------- 1 2.0 1.0 64 164
- 0.564048 2 1 ack 40 ------- 1 2.0 1.0 64 164
r 0.564336 1 3 cbr 210 ------- 0 0.0 3.0 16 153
r 0.564416 2 1 ack 40 ------- 1 2.0 1.0 62 159
+ 0.564416 1 2 tcp 1040 ------- 1 1.0 2.0 82 165
- 0.564544 1 2 tcp 1040 ------- 1 1.0 2.0 68 134
r 0.56488 1 2 tcp 1040 ------- 1 1.0 2.0 65 127
+ 0.56488 2 1 ack 40 ------- 1 2.0 1.0 65 166
- 0.56488 2 1 ack 40 ------- 1 2.0 1.0 65 166
r 0.565248 2 1 ack 40 ------- 1 2.0 1.0 63 161
+ 0.565248 1 2 tcp 1040 ------- 1 1.0 2.0 83 167
- 0.565376 1 2 tcp 1040 ------- 1 1.0 2.0 69 136
r 0.565712 1 2 tcp 1040 ------- 1 1.0 2.0 66 129
+ 0.565712 2 1 ack 40 ------- 1 2.0 1.0 66 168
- 0.565712 2 1 ack 40 ------- 1 2.0 1.0 66 168
r 0.565918 0 1 cbr 210 ------- 0 0.0 3.0 17 163
+ 0.565918 1 3 cbr 210 ------- 0 0.0 3.0 17 163
- 0.565918 1 3 cbr 210 ------- 0 0.0 3.0 17 163
r 0.56608 2 1 ack 40 ------- 1 2.0 1.0 64 164
+ 0.56608 1 2 tcp 1040 ------- 1 1.0 2.0 84 169
- 0.566208 1 2 tcp 1040 ------- 1 1.0 2.0 70 138
r 0.566544 1 2 tcp 1040 ------- 1 1.0 2.0 67 131
+ 0.566544 2 1 ack 40 ------- 1 2.0 1.0 67 170
- 0.566544 2 1 ack 40 ------- 1 2.0 1.0 67 170
r 0.566912 2 1 ack 40 ------- 1 2.0 1.0 65 166
+ 0.566912 1 2 tcp 1040 ------- 1 1.0 2.0 85 171
- 0.56704 1 2 tcp 1040 ------- 1 1.0 2.0 71 140
r 0.567376 1 2 tcp 1040 ------- 1 1.0 2.0 68 134
+ 0.567376 2 1 ack 40 ------- 1 2.0 1.0 68 172
- 0.567376 2 1 ack 40 ------- 1 2.0 1.0 68 172
+ 0.5675 0 1 cbr 210 ------- 0 0.0 3.0 18 173
- 0.5675 0 1 cbr 210 ------- 0 0.0 3.0 18 173
r 0.567744 2 1 ack 40 ------- 1 2.0 1.0 66 168
+ 0.567744 1 2 tcp 1040 ------- 1 1.0 2.0 86 174
- 0.567872 1 2 tcp 1040 ------- 1 1.0 2.0 72 142
r 0.568086 1 3 cbr 210 ------- 0 0.0 3.0 17 163
r 0.568208 1 2 tcp 1040 ------- 1 1.0 2.0 69 136
+ 0.568208 2 1 ack 40 ------- 1 2.0 1.0 69 175
- 0.568208 2 1 ack 40 ------- 1 2.0 1.0 69 175
r 0.568576 2 1 ack 40 ------- 1 2.0 1.0 67 170
+ 0.568576 1 2 tcp 1040 ------- 1 1.0 2.0 87 176
- 0.568704 1 2 tcp 1040 ------- 1 1.0 2.0 73 145
r 0.56904 1 2 tcp 1040 ------- 1 1.0 2.0 70 138
+ 0.56904 2 1 ack 40 ------- 1 2.0 1.0 70 177
- 0.56904 2 1 ack 40 ------- 1 2.0 1.0 70 177
r 0.569408 2 1 ack 40 ------- 1 2.0 1.0 68 172
+ 0.569408 1 2 tcp 1040 ------- 1 1.0 2.0 88 178
- 0.569536 1 2 tcp 1040 ------- 1 1.0 2.0 74 147
r 0.569668 0 1 cbr 210 ------- 0 0.0 3.0 18 173
+ 0.569668 1 3 cbr 210 ------- 0 0.0 3.0 18 173
- 0.569668 1 3 cbr 210 ------- 0 0.0 3.0 18 173
r 0.569872 1 2 tcp 1040 ------- 1 1.0 2.0 71 140
+ 0.569872 2 1 ack 40 ------- 1 2.0 1.0 71 179
- 0.569872 2 1 ack 40 ------- 1 2.0 1.0 71 179
r 0.57024 2 1 ack 40 ------- 1 2.0 1.0 69 175
+ 0.57024 1 2 tcp 1040 ------- 1 1.0 2.0 89 180
- 0.570368 1 2 tcp 1040 ------- 1 1.0 2.0 75 149
r 0.570704 1 2 tcp 1040 ------- 1 1.0 2.0 72 142
+ 0.570704 2 1 ack 40 ------- 1 2.0 1.0 72 181
- 0.570704 2 1 ack 40 ------- 1 2.0 1.0 72 181
r 0.571072 2 1 ack 40 ------- 1 2.0 1.0 70 177
+ 0.571072 1 2 tcp 1040 ------- 1 1.0 2.0 90 182
- 0.5712 1 2 tcp 1040 ------- 1 1.0 2.0 76 151
+ 0.57125 0 1 cbr 210 ------- 0 0.0 3.0 19 183
- 0.57125 0 1 cbr 210 ------- 0 0.0 3.0 19 183
r 0.571536 1 2 tcp 1040 ------- 1 1.0 2.0 73 145
+ 0.571536 2 1 ack 40 ------- 1 2.0 1.0 73 184
- 0.571536 2 1 ack 40 ------- 1 2.0 1.0 73 184
r 0.571836 1 3 cbr 210 ------- 0 0.0 3.0 18 173
r 0.571904 2 1 ack 40 ------- 1 2.0 1.0 71 179
+ 0.571904 1 2 tcp 1040 ------- 1 1.0 2.0 91 185
- 0.572032 1 2 tcp 1040 ------- 1 1.0 2.0 77 154
r 0.572368 1 2 tcp 1040 ------- 1 1.0 2.0 74 147
+ 0.572368 2 1 ack 40 ------- 1 2.0 1.0 74 186
- 0.572368 2 1 ack 40 ------- 1 2.0 1.0 74 186
r 0.572736 2 1 ack 40 ------- 1 2.0 1.0 72 181
+ 0.572736 1 2 tcp 1040 ------- 1 1.0 2.0 92 187
- 0.572864 1 2 tcp 1040 ------- 1 1.0 2.0 78 156
r 0.5732 1 2 tcp 1040 ------- 1 1.0 2.0 75 149
+ 0.5732 2 1 ack 40 ------- 1 2.0 1.0 75 188
- 0.5732 2 1 ack 40 ------- 1 2.0 1.0 75 188
r 0.573418 0 1 cbr 210 ------- 0 0.0 3.0 19 183
+ 0.573418 1 3 cbr 210 ------- 0 0.0 3.0 19 183
- 0.573418 1 3 cbr 210 ------- 0 0.0 3.0 19 183
r 0.573568 2 1 ack 40 ------- 1 2.0 1.0 73 184
+ 0.573568 1 2 tcp 1040 ------- 1 1.0 2.0 93 189
- 0.573696 1 2 tcp 1040 ------- 1 1.0 2.0 79 158
r 0.574032 1 2 tcp 1040 ------- 1 1.0 2.0 76 151
+ 0.574032 2 1 ack 40 ------- 1 2.0 1.0 76 190
- 0.574032 2 1 ack 40 ------- 1 2.0 1.0 76 190
r 0.5744 2 1 ack 40 ------- 1 2.0 1.0 74 186
+ 0.5744 1 2 tcp 1040 ------- 1 1.0 2.0 94 191
- 0.574528 1 2 tcp 1040 ------- 1 1.0 2.0 80 160
r 0.574864 1 2 tcp 1040 ------- 1 1.0 2.0 77 154
+ 0.574864 2 1 ack 40 ------- 1 2.0 1.0 77 192
- 0.574864 2 1 ack 40 ------- 1 2.0 1.0 77 192
+ 0.575 0 1 cbr 210 ------- 0 0.0 3.0 20 193
- 0.575 0 1 cbr 210 ------- 0 0.0 3.0 20 193
r 0.575232 2 1 ack 40 ------- 1 2.0 1.0 75 188
+ 0.575232 1 2 tcp 1040 ------- 1 1.0 2.0 95 194
- 0.57536 1 2 tcp 1040 ------- 1 1.0 2.0 81 162
r 0.575586 1 3 cbr 210 ------- 0 0.0 3.0 19 183
r 0.575696 1 2 tcp 1040 ------- 1 1.0 2.0 78 156
+ 0.575696 2 1 ack 40 ------- 1 2.0 1.0 78 195
- 0.575696 2 1 ack 40 ------- 1 2.0 1.0 78 195
r 0.576064 2 1 ack 40 ------- 1 2.0 1.0 76 190
+ 0.576064 1 2 tcp 1040 ------- 1 1.0 2.0 96 196
- 0.576192 1 2 tcp 1040 ------- 1 1.0 2.0 82 165
r 0.576528 1 2 tcp 1040 ------- 1 1.0 2.0 79 158
+ 0.576528 2 1 ack 40 ------- 1 2.0 1.0 79 197
- 0.576528 2 1 ack 40 ------- 1 2.0 1.0 79 197
r 0.576896 2 1 ack 40 ------- 1 2.0 1.0 77 192
+ 0.576896 1 2 tcp 1040 ------- 1 1.0 2.0 97 198
- 0.577024 1 2 tcp 1040 ------- 1 1.0 2.0 83 167
r 0.577168 0 1 cbr 210 ------- 0 0.0 3.0 20 193
+ 0.577168 1 3 cbr 210 ------- 0 0.0 3.0 20 193
- 0.577168 1 3 cbr 210 ------- 0 0.0 3.0 20 193
r 0.57736 1 2 tcp 1040 ------- 1 1.0 2.0 80 160
+ 0.57736 2 1 ack 40 ------- 1 2.0 1.0 80 199
- 0.57736 2 1 ack 40 ------- 1 2.0 1.0 80 199
r 0.577728 2 1 ack 40 ------- 1 2.0 1.0 78 195
+ 0.577728 1 2 tcp 1040 ------- 1 1.0 2.0 98 200
- 0.577856 1 2 tcp 1040 ------- 1 1.0 2.0 84 169
r 0.578192 1 2 tcp 1040 ------- 1 1.0 2.0 81 162
+ 0.578192 2 1 ack 40 ------- 1 2.0 1.0 81 201
- 0.578192 2 1 ack 40 ------- 1 2.0 1.0 81 201
r 0.57856 2 1 ack 40 ------- 1 2.0 1.0 79 197
+ 0.57856 1 2 tcp 1040 ------- 1 1.0 2.0 99 202
- 0.578688 1 2 tcp 1040 ------- 1 1.0 2.0 85 171
+ 0.57875 0 1 cbr 210 ------- 0 0.0 3.0 21 203
- 0.57875 0 1 cbr 210 ------- 0 0.0 3.0 21 203