+ 1 0 1 cbr 210 ------- 0 0.0 2.0 0 0
- 1 0 1 cbr 210 ------- 0 0.0 2.0 0 0
r 1.002168 0 1 cbr 210 ------- 0 0.0 2.0 0 0
+ 1.002168 1 2 cbr 210 ------- 0 0.0 2.0 0 0
- 1.002168 1 2 cbr 210 ------- 0 0.0 2.0 0 0
+ 1.00375 0 1 cbr 210 ------- 0 0.0 2.0 1 1
- 1.00375 0 1 cbr 210 ------- 0 0.0 2.0 1 1
r 1.004504 1 2 cbr 210 ------- 0 0.0 2.0 0 0
r 1.005918 0 1 cbr 210 ------- 0 0.0 2.0 1 1
+ 1.005918 1 2 cbr 210 ------- 0 0.0 2.0 1 1
- 1.005918 1 2 cbr 210 ------- 0 0.0 2.0 1 1
+ 1.0075 0 1 cbr 210 ------- 0 0.0 2.0 2 2
- 1.0075 0 1 cbr 210 ------- 0 0.0 2.0 2 2
r 1.008254 1 2 cbr 210 ------- 0 0.0 2.0 1 1
r 1.009668 0 1 cbr 210 ------- 0 0.0 2.0 2 2
+ 1.009668 1 2 cbr 210 ------- 0 0.0 2.0 2 2
- 1.009668 1 2 cbr 210 ------- 0 0.0 2.0 2 2
+ 1.01125 0 1 cbr 210 ------- 0 0.0 2.0 3 3
- 1.01125 0 1 cbr 210 ------- 0 0.0 2.0 3 3
r 1.012004 1 2 cbr 210 ------- 0 0.0 2.0 2 2
r 1.013418 0 1 cbr 210 ------- 0 0.0 2.0 3 3
+ 1.013418 1 2 cbr 210 ------- 0 0.0 2.0 3 3
- 1.013418 1 2 cbr 210 ------- 0 0.0 2.0 3 3
+ 1.015 0 1 cbr 210 ------- 0 0.0 2.0 4 4
- 1.015 0 1 cbr 210 ------- 0 0.0 2.0 4 4
r 1.015754 1 2 cbr 210 ------- 0 0.0 2.0 3 3
r 1.017168 0 1 cbr 210 ------- 0 0.0 2.0 4 4
+ 1.017168 1 2 cbr 210 ------- 0 0.0 2.0 4 4
- 1.017168 1 2 cbr 210 ------- 0 0.0 2.0 4 4
+ 1.01875 0 1 cbr 210 ------- 0 0.0 2.0 5 5
- 1.01875 0 1 cbr 210 ------- 0 0.0 2.0 5 5
r 1.019504 1 2 cbr 210 ------- 0 0.0 2.0 4 4
r 1.020918 0 1 cbr 210 ------- 0 0.0 2.0 5 5
+ 1.020918 1 2 cbr 210 ------- 0 0.0 2.0 5 5
- 1.020918 1 2 cbr 210 ------- 0 0.0 2.0 5 5
+ 1.0225 0 1 cbr 210 ------- 0 0.0 2.0 6 6
- 1.0225 0 1 cbr 210 ------- 0 0.0 2.0 6 6
r 1.023254 1 2 cbr 210 ------- 0 0.0 2.0 5 5
r 1.024668 0 1 cbr 210 ------- 0 0.0 2.0 6 6
+ 1.024668 1 2 cbr 210 ------- 0 0.0 2.0 6 6
- 1.024668 1 2 cbr 210 ------- 0 0.0 2.0 6 6
+ 1.02625 0 1 cbr 210 ------- 0 0.0 2.0 7 7
- 1.02625 0 1 cbr 210 ------- 0 0.0 2.0 7 7
r 1.027004 1 2 cbr 210 ------- 0 0.0 2.0 6 6
r 1.028418 0 1 cbr 210 ------- 0 0.0 2.0 7 7
+ 1.028418 1 2 cbr 210 ------- 0 0.0 2.0 7 7
- 1.028418 1 2 cbr 210 ------- 0 0.0 2.0 7 7
+ 1.03 0 1 cbr 210 ------- 0 0.0 2.0 8 8
- 1.03 0 1 cbr 210 ------- 0 0.0 2.0 8 8
r 1.030754 1 2 cbr 210 ------- 0 0.0 2.0 7 7
r 1.032168 0 1 cbr 210 ------- 0 0.0 2.0 8 8
+ 1.032168 1 2 cbr 210 ------- 0 0.0 2.0 8 8
- 1.032168 1 2 cbr 210 ------- 0 0.0 2.0 8 8
+ 1.03375 0 1 cbr 210 ------- 0 0.0 2.0 9 9
- 1.03375 0 1 cbr 210 ------- 0 0.0 2.0 9 9
r 1.034504 1 2 cbr 210 ------- 0 0.0 2.0 8 8
r 1.035918 0 1 cbr 210 ------- 0 0.0 2.0 9 9
+ 1.035918 1 2 cbr 210 ------- 0 0.0 2.0 9 9
- 1.035918 1 2 cbr 210 ------- 0 0.0 2.0 9 9
+ 1.0375 0 1 cbr 210 ------- 0 0.0 2.0 10 10
- 1.0375 0 1 cbr 210 ------- 0 0.0 2.0 10 10
r 1.038254 1 2 cbr 210 ------- 0 0.0 2.0 9 9
r 1.039668 0 1 cbr 210 ------- 0 0.0 2.0 10 10
+ 1.039668 1 2 cbr 210 ------- 0 0.0 2.0 10 10
- 1.039668 1 2 cbr 210 ------- 0 0.0 2.0 10 10
+ 1.04125 0 1 cbr 210 ------- 0 0.0 2.0 11 11
- 1.04125 0 1 cbr 210 ------- 0 0.0 2.0 11 11
r 1.042004 1 2 cbr 210 ------- 0 0.0 2.0 10 10
r 1.043418 0 1 cbr 210 ------- 0 0.0 2.0 11 11
+ 1.043418 1 2 cbr 210 ------- 0 0.0 2.0 11 11
- 1.043418 1 2 cbr 210 ------- 0 0.0 2.0 11 11
+ 1.045 0 1 cbr 210 ------- 0 0.0 2.0 12 12
- 1.045 0 1 cbr 210 ------- 0 0.0 2.0 12 12
r 1.045754 1 2 cbr 210 ------- 0 0.0 2.0 11 11
r 1.047168 0 1 cbr 210 ------- 0 0.0 2.0 12 12
+ 1.047168 1 2 cbr 210 ------- 0 0.0 2.0 12 12
- 1.047168 1 2 cbr 210 ------- 0 0.0 2.0 12 12
+ 1.04875 0 1 cbr 210 ------- 0 0.0 2.0 13 13
- 1.04875 0 1 cbr 210 ------- 0 0.0 2.0 13 13
r 1.049504 1 2 cbr 210 ------- 0 0.0 2.0 12 12
r 1.050918 0 1 cbr 210 ------- 0 0.0 2.0 13 13
+ 1.050918 1 2 cbr 210 ------- 0 0.0 2.0 13 13
- 1.050918 1 2 cbr 210 ------- 0 0.0 2.0 13 13
+ 1.0525 0 1 cbr 210 ------- 0 0.0 2.0 14 14
- 1.0525 0 1 cbr 210 ------- 0 0.0 2.0 14 14
r 1.053254 1 2 cbr 210 ------- 0 0.0 2.0 13 13
r 1.054668 0 1 cbr 210 ------- 0 0.0 2.0 14 14
+ 1.054668 1 2 cbr 210 ------- 0 0.0 2.0 14 14
- 1.054668 1 2 cbr 210 ------- 0 0.0 2.0 14 14
+ 1.05625 0 1 cbr 210 ------- 0 0.0 2.0 15 15
- 1.05625 0 1 cbr 210 ------- 0 0.0 2.0 15 15
r 1.057004 1 2 cbr 210 ------- 0 0.0 2.0 14 14
r 1.058418 0 1 cbr 210 ------- 0 0.0 2.0 15 15
+ 1.058418 1 2 cbr 210 ------- 0 0.0 2.0 15 15
- 1.058418 1 2 cbr 210 ------- 0 0.0 2.0 15 15
+ 1.06 0 1 cbr 210 ------- 0 0.0 2.0 16 16
- 1.06 0 1 cbr 210 ------- 0 0.0 2.0 16 16
r 1.060754 1 2 cbr 210 ------- 0 0.0 2.0 15 15
r 1.062168 0 1 cbr 210 ------- 0 0.0 2.0 16 16
+ 1.062168 1 2 cbr 210 ------- 0 0.0 2.0 16 16
- 1.062168 1 2 cbr 210 ------- 0 0.0 2.0 16 16
+ 1.06375 0 1 cbr 210 ------- 0 0.0 2.0 17 17
- 1.06375 0 1 cbr 210 ------- 0 0.0 2.0 17 17
r 1.064504 1 2 cbr 210 ------- 0 0.0 2.0 16 16
r 1.065918 0 1 cbr 210 ------- 0 0.0 2.0 17 17
+ 1.065918 1 2 cbr 210 ------- 0 0.0 2.0 17 17
- 1.065918 1 2 cbr 210 ------- 0 0.0 2.0 17 17
+ 1.0675 0 1 cbr 210 ------- 0 0.0 2.0 18 18
- 1.0675 0 1 cbr 210 ------- 0 0.0 2.0 18 18
r 1.068254 1 2 cbr 210 ------- 0 0.0 2.0 17 17
r 1.069668 0 1 cbr 210 ------- 0 0.0 2.0 18 18
+ 1.069668 1 2 cbr 210 ------- 0 0.0 2.0 18 18
- 1.069668 1 2 cbr 210 ------- 0 0.0 2.0 18 18
+ 1.07125 0 1 cbr 210 ------- 0 0.0 2.0 19 19
- 1.07125 0 1 cbr 210 ------- 0 0.0 2.0 19 19
r 1.072004 1 2 cbr 210 ------- 0 0.0 2.0 18 18
r 1.073418 0 1 cbr 210 ------- 0 0.0 2.0 19 19
+ 1.073418 1 2 cbr 210 ------- 0 0.0 2.0 19 19
- 1.073418 1 2 cbr 210 ------- 0 0.0 2.0 19 19
+ 1.075 0 1 cbr 210 ------- 0 0.0 2.0 20 20
- 1.075 0 1 cbr 210 ------- 0 0.0 2.0 20 20
r 1.075754 1 2 cbr 210 ------- 0 0.0 2.0 19 19
r 1.077168 0 1 cbr 210 ------- 0 0.0 2.0 20 20
+ 1.077168 1 2 cbr 210 ------- 0 0.0 2.0 20 20
- 1.077168 1 2 cbr 210 ------- 0 0.0 2.0 20 20
+ 1.07875 0 1 cbr 210 ------- 0 0.0 2.0 21 21
- 1.07875 0 1 cbr 210 ------- 0 0.0 2.0 21 21
r 1.079504 1 2 cbr 210 ------- 0 0.0 2.0 20 20
r 1.080918 0 1 cbr 210 ------- 0 0.0 2.0 21 21
+ 1.080918 1 2 cbr 210 ------- 0 0.0 2.0 21 21
- 1.080918 1 2 cbr 210 ------- 0 0.0 2.0 21 21
+ 1.0825 0 1 cbr 210 ------- 0 0.0 2.0 22 22
- 1.0825 0 1 cbr 210 ------- 0 0.0 2.0 22 22
r 1.083254 1 2 cbr 210 ------- 0 0.0 2.0 21 21
r 1.084668 0 1 cbr 210 ------- 0 0.0 2.0 22 22
+ 1.084668 1 2 cbr 210 ------- 0 0.0 2.0 22 22
- 1.084668 1 2 cbr 210 ------- 0 0.0 2.0 22 22
+ 1.08625 0 1 cbr 210 ------- 0 0.0 2.0 23 23
- 1.08625 0 1 cbr 210 ------- 0 0.0 2.0 23 23
r 1.087004 1 2 cbr 210 ------- 0 0.0 2.0 22 22
r 1.088418 0 1 cbr 210 ------- 0 0.0 2.0 23 23
+ 1.088418 1 2 cbr 210 ------- 0 0.0 2.0 23 23
- 1.088418 1 2 cbr 210 ------- 0 0.0 2.0 23 23
+ 1.09 0 1 cbr 210 ------- 0 0.0 2.0 24 24
- 1.09 0 1 cbr 210 ------- 0 0.0 2.0 24 24
r 1.090754 1 2 cbr 210 ------- 0 0.0 2.0 23 23
r 1.092168 0 1 cbr 210 ------- 0 0.0 2.0 24 24
+ 1.092168 1 2 cbr 210 ------- 0 0.0 2.0 24 24
- 1.092168 1 2 cbr 210 ------- 0 0.0 2.0 24 24
+ 1.09375 0 1 cbr 210 ------- 0 0.0 2.0 25 25
- 1.09375 0 1 cbr 210 ------- 0 0.0 2.0 25 25
r 1.094504 1 2 cbr 210 ------- 0 0.0 2.0 24 24
r 1.095918 0 1 cbr 210 ------- 0 0.0 2.0 25 25
+ 1.095918 1 2 cbr 210 ------- 0 0.0 2.0 25 25
- 1.095918 1 2 cbr 210 ------- 0 0.0 2.0 25 25
+ 1.0975 0 1 cbr 210 ------- 0 0.0 2.0 26 26
- 1.0975 0 1 cbr 210 ------- 0 0.0 2.0 26 26
r 1.098254 1 2 cbr 210 ------- 0 0.0 2.0 25 25
r 1.099668 0 1 cbr 210 ------- 0 0.0 2.0 26 26
+ 1.099668 1 2 cbr 210 ------- 0 0.0 2.0 26 26
- 1.099668 1 2 cbr 210 ------- 0 0.0 2.0 26 26
+ 1.10125 0 1 cbr 210 ------- 0 0.0 2.0 27 27
- 1.10125 0 1 cbr 210 ------- 0 0.0 2.0 27 27
r 1.102004 1 2 cbr 210 ------- 0 0.0 2.0 26 26
r 1.103418 0 1 cbr 210 ------- 0 0.0 2.0 27 27
+ 1.103418 1 2 cbr 210 ------- 0 0.0 2.0 27 27
- 1.103418 1 2 cbr 210 ------- 0 0.0 2.0 27 27
+ 1.105 0 1 cbr 210 ------- 0 0.0 2.0 28 28
- 1.105 0 1 cbr 210 ------- 0 0.0 2.0 28 28
r 1.105754 1 2 cbr 210 ------- 0 0.0 2.0 27 27
r 1.107168 0 1 cbr 210 ------- 0 0.0 2.0 28 28
+ 1.107168 1 2 cbr 210 ------- 0 0.0 2.0 28 28
- 1.107168 1 2 cbr 210 ------- 0 0.0 2.0 28 28
+ 1.10875 0 1 cbr 210 ------- 0 0.0 2.0 29 29
- 1.10875 0 1 cbr 210 ------- 0 0.0 2.0 29 29
r 1.109504 1 2 cbr 210 ------- 0 0.0 2.0 28 28
r 1.110918 0 1 cbr 210 ------- 0 0.0 2.0 29 29
+ 1.110918 1 2 cbr 210 ------- 0 0.0 2.0 29 29
- 1.110918 1 2 cbr 210 ------- 0 0.0 2.0 29 29
+ 1.1125 0 1 cbr 210 ------- 0 0.0 2.0 30 30
- 1.1125 0 1 cbr 210 ------- 0 0.0 2.0 30 30
r 1.113254 1 2 cbr 210 ------- 0 0.0 2.0 29 29
r 1.114668 0 1 cbr 210 ------- 0 0.0 2.0 30 30
+ 1.114668 1 2 cbr 210 ------- 0 0.0 2.0 30 30
- 1.114668 1 2 cbr 210 ------- 0 0.0 2.0 30 30
+ 1.11625 0 1 cbr 210 ------- 0 0.0 2.0 31 31
- 1.11625 0 1 cbr 210 ------- 0 0.0 2.0 31 31
r 1.117004 1 2 cbr 210 ------- 0 0.0 2.0 30 30
r 1.118418 0 1 cbr 210 ------- 0 0.0 2.0 31 31
+ 1.118418 1 2 cbr 210 ------- 0 0.0 2.0 31 31
- 1.118418 1 2 cbr 210 ------- 0 0.0 2.0 31 31
+ 1.12 0 1 cbr 210 ------- 0 0.0 2.0 32 32
- 1.12 0 1 cbr 210 ------- 0 0.0 2.0 32 32
r 1.120754 1 2 cbr 210 ------- 0 0.0 2.0 31 31
r 1.122168 0 1 cbr 210 ------- 0 0.0 2.0 32 32
+ 1.122168 1 2 cbr 210 ------- 0 0.0 2.0 32 32
- 1.122168 1 2 cbr 210 ------- 0 0.0 2.0 32 32
+ 1.12375 0 1 cbr 210 ------- 0 0.0 2.0 33 33
- 1.12375 0 1 cbr 210 ------- 0 0.0 2.0 33 33
r 1.124504 1 2 cbr 210 ------- 0 0.0 2.0 32 32
r 1.125918 0 1 cbr 210 ------- 0 0.0 2.0 33 33
+ 1.125918 1 2 cbr 210 ------- 0 0.0 2.0 33 33
- 1.125918 1 2 cbr 210 ------- 0 0.0 2.0 33 33
+ 1.1275 0 1 cbr 210 ------- 0 0.0 2.0 34 34
- 1.1275 0 1 cbr 210 ------- 0 0.0 2.0 34 34
r 1.128254 1 2 cbr 210 ------- 0 0.0 2.0 33 33
r 1.129668 0 1 cbr 210 ------- 0 0.0 2.0 34 34
+ 1.129668 1 2 cbr 210 ------- 0 0.0 2.0 34 34
- 1.129668 1 2 cbr 210 ------- 0 0.0 2.0 34 34
+ 1.13125 0 1 cbr 210 ------- 0 0.0 2.0 35 35
- 1.13125 0 1 cbr 210 ------- 0 0.0 2.0 35 35
r 1.132004 1 2 cbr 210 ------- 0 0.0 2.0 34 34
r 1.133418 0 1 cbr 210 ------- 0 0.0 2.0 35 35
+ 1.133418 1 2 cbr 210 ------- 0 0.0 2.0 35 35
- 1.133418 1 2 cbr 210 ------- 0 0.0 2.0 35 35
+ 1.135 0 1 cbr 210 ------- 0 0.0 2.0 36 36
- 1.135 0 1 cbr 210 ------- 0 0.0 2.0 36 36
r 1.135754 1 2 cbr 210 ------- 0 0.0 2.0 35 35
r 1.137168 0 1 cbr 210 ------- 0 0.0 2.0 36 36
+ 1.137168 1 2 cbr 210 ------- 0 0.0 2.0 36 36
- 1.137168 1 2 cbr 210 ------- 0 0.0 2.0 36 36
+ 1.13875 0 1 cbr 210 ------- 0 0.0 2.0 37 37
- 1.13875 0 1 cbr 210 ------- 0 0.0 2.0 37 37
r 1.139504 1 2 cbr 210 ------- 0 0.0 2.0 36 36
r 1.140918 0 1 cbr 210 ------- 0 0.0 2.0 37 37
+ 1.140918 1 2 cbr 210 ------- 0 0.0 2.0 37 37
- 1.140918 1 2 cbr 210 ------- 0 0.0 2.0 37 37
+ 1.1425 0 1 cbr 210 ------- 0 0.0 2.0 38 38
- 1.1425 0 1 cbr 210 ------- 0 0.0 2.0 38 38
r 1.143254 1 2 cbr 210 ------- 0 0.0 2.0 37 37
r 1.144668 0 1 cbr 210 ------- 0 0.0 2.0 38 38
+ 1.144668 1 2 cbr 210 ------- 0 0.0 2.0 38 38
- 1.144668 1 2 cbr 210 ------- 0 0.0 2.0 38 38
+ 1.14625 0 1 cbr 210 ------- 0 0.0 2.0 39 39
- 1.14625 0 1 cbr 210 ------- 0 0.0 2.0 39 39
r 1.147004 1 2 cbr 210 ------- 0 0.0 2.0 38 38
r 1.148418 0 1 cbr 210 ------- 0 0.0 2.0 39 39
+ 1.148418 1 2 cbr 210 ------- 0 0.0 2.0 39 39
- 1.148418 1 2 cbr 210 ------- 0 0.0 2.0 39 39
+ 1.15 0 1 cbr 210 ------- 0 0.0 2.0 40 40
- 1.15 0 1 cbr 210 ------- 0 0.0 2.0 40 40
r 1.150754 1 2 cbr 210 ------- 0 0.0 2.0 39 39
r 1.152168 0 1 cbr 210 ------- 0 0.0 2.0 40 40
+ 1.152168 1 2 cbr 210 ------- 0 0.0 2.0 40 40
- 1.152168 1 2 cbr 210 ------- 0 0.0 2.0 40 40
+ 1.15375 0 1 cbr 210 ------- 0 0.0 2.0 41 41
- 1.15375 0 1 cbr 210 ------- 0 0.0 2.0 41 41
r 1.154504 1 2 cbr 210 ------- 0 0.0 2.0 40 40
r 1.155918 0 1 cbr 210 ------- 0 0.0 2.0 41 41
+ 1.155918 1 2 cbr 210 ------- 0 0.0 2.0 41 41
- 1.155918 1 2 cbr 210 ------- 0 0.0 2.0 41 41
+ 1.1575 0 1 cbr 210 ------- 0 0.0 2.0 42 42
- 1.1575 0 1 cbr 210 ------- 0 0.0 2.0 42 42
r 1.158254 1 2 cbr 210 ------- 0 0.0 2.0 41 41
r 1.159668 0 1 cbr 210 ------- 0 0.0 2.0 42 42
+ 1.159668 1 2 cbr 210 ------- 0 0.0 2.0 42 42
- 1.159668 1 2 cbr 210 ------- 0 0.0 2.0 42 42
+ 1.16125 0 1 cbr 210 ------- 0 0.0 2.0 43 43
- 1.16125 0 1 cbr 210 ------- 0 0.0 2.0 43 43
r 1.162004 1 2 cbr 210 ------- 0 0.0 2.0 42 42
r 1.163418 0 1 cbr 210 ------- 0 0.0 2.0 43 43
+ 1.163418 1 2 cbr 210 ------- 0 0.0 2.0 43 43
- 1.163418 1 2 cbr 210 ------- 0 0.0 2.0 43 43
+ 1.165 0 1 cbr 210 ------- 0 0.0 2.0 44 44
- 1.165 0 1 cbr 210 ------- 0 0.0 2.0 44 44
r 1.165754 1 2 cbr 210 ------- 0 0.0 2.0 43 43
r 1.167168 0 1 cbr 210 ------- 0 0.0 2.0 44 44
+ 1.167168 1 2 cbr 210 ------- 0 0.0 2.0 44 44
- 1.167168 1 2 cbr 210 ------- 0 0.0 2.0 44 44
+ 1.16875 0 1 cbr 210 ------- 0 0.0 2.0 45 45
- 1.16875 0 1 cbr 210 ------- 0 0.0 2.0 45 45
r 1.169504 1 2 cbr 210 ------- 0 0.0 2.0 44 44
r 1.170918 0 1 cbr 210 ------- 0 0.0 2.0 45 45
+ 1.170918 1 2 cbr 210 ------- 0 0.0 2.0 45 45
- 1.170918 1 2 cbr 210 ------- 0 0.0 2.0 45 45
+ 1.1725 0 1 cbr 210 ------- 0 0.0 2.0 46 46
- 1.1725 0 1 cbr 210 ------- 0 0.0 2.0 46 46
r 1.173254 1 2 cbr 210 ------- 0 0.0 2.0 45 45
r 1.174668 0 1 cbr 210 ------- 0 0.0 2.0 46 46
+ 1.174668 1 2 cbr 210 ------- 0 0.0 2.0 46 46
- 1.174668 1 2 cbr 210 ------- 0 0.0 2.0 46 46
+ 1.17625 0 1 cbr 210 ------- 0 0.0 2.0 47 47
- 1.17625 0 1 cbr 210 ------- 0 0.0 2.0 47 47
r 1.177004 1 2 cbr 210 ------- 0 0.0 2.0 46 46
r 1.178418 0 1 cbr 210 ------- 0 0.0 2.0 47 47
+ 1.178418 1 2 cbr 210 ------- 0 0.0 2.0 47 47
- 1.178418 1 2 cbr 210 ------- 0 0.0 2.0 47 47
+ 1.18 0 1 cbr 210 ------- 0 0.0 2.0 48 48
- 1.18 0 1 cbr 210 ------- 0 0.0 2.0 48 48
r 1.180754 1 2 cbr 210 ------- 0 0.0 2.0 47 47
r 1.182168 0 1 cbr 210 ------- 0 0.0 2.0 48 48
+ 1.182168 1 2 cbr 210 ------- 0 0.0 2.0 48 48
- 1.182168 1 2 cbr 210 ------- 0 0.0 2.0 48 48
+ 1.18375 0 1 cbr 210 ------- 0 0.0 2.0 49 49
- 1.18375 0 1 cbr 210 ------- 0 0.0 2.0 49 49
r 1.184504 1 2 cbr 210 ------- 0 0.0 2.0 48 48
r 1.185918 0 1 cbr 210 ------- 0 0.0 2.0 49 49
+ 1.185918 1 2 cbr 210 ------- 0 0.0 2.0 49 49
- 1.185918 1 2 cbr 210 ------- 0 0.0 2.0 49 49
+ 1.1875 0 1 cbr 210 ------- 0 0.0 2.0 50 50
- 1.1875 0 1 cbr 210 ------- 0 0.0 2.0 50 50
r 1.188254 1 2 cbr 210 ------- 0 0.0 2.0 49 49
r 1.189668 0 1 cbr 210 ------- 0 0.0 2.0 50 50
+ 1.189668 1 2 cbr 210 ------- 0 0.0 2.0 50 50
- 1.189668 1 2 cbr 210 ------- 0 0.0 2.0 50 50
+ 1.19125 0 1 cbr 210 ------- 0 0.0 2.0 51 51
- 1.19125 0 1 cbr 210 ------- 0 0.0 2.0 51 51
r 1.192004 1 2 cbr 210 ------- 0 0.0 2.0 50 50
r 1.193418 0 1 cbr 210 ------- 0 0.0 2.0 51 51
+ 1.193418 1 2 cbr 210 ------- 0 0.0 2.0 51 51
- 1.193418 1 2 cbr 210 ------- 0 0.0 2.0 51 51
+ 1.195 0 1 cbr 210 ------- 0 0.0 2.0 52 52
- 1.195 0 1 cbr 210 ------- 0 0.0 2.0 52 52
r 1.195754 1 2 cbr 210 ------- 0 0.0 2.0 51 51
r 1.197168 0 1 cbr 210 ------- 0 0.0 2.0 52 52
+ 1.197168 1 2 cbr 210 ------- 0 0.0 2.0 52 52
- 1.197168 1 2 cbr 210 ------- 0 0.0 2.0 52 52
+ 1.19875 0 1 cbr 210 ------- 0 0.0 2.0 53 53
- 1.19875 0 1 cbr 210 ------- 0 0.0 2.0 53 53
r 1.199504 1 2 cbr 210 ------- 0 0.0 2.0 52 52
r 1.200918 0 1 cbr 210 ------- 0 0.0 2.0 53 53
+ 1.200918 1 2 cbr 210 ------- 0 0.0 2.0 53 53
- 1.200918 1 2 cbr 210 ------- 0 0.0 2.0 53 53
+ 1.2025 0 1 cbr 210 ------- 0 0.0 2.0 54 54
- 1.2025 0 1 cbr 210 ------- 0 0.0 2.0 54 54
r 1.203254 1 2 cbr 210 ------- 0 0.0 2.0 53 53
r 1.204668 0 1 cbr 210 ------- 0 0.0 2.0 54 54
+ 1.204668 1 2 cbr 210 ------- 0 0.0 2.0 54 54
- 1.204668 1 2 cbr 210 ------- 0 0.0 2.0 54 54
+ 1.20625 0 1 cbr 210 ------- 0 0.0 2.0 55 55
- 1.20625 0 1 cbr 210 ------- 0 0.0 2.0 55 55
r 1.207004 1 2 cbr 210 ------- 0 0.0 2.0 54 54
r 1.208418 0 1 cbr 210 ------- 0 0.0 2.0 55 55
+ 1.208418 1 2 cbr 210 ------- 0 0.0 2.0 55 55
- 1.208418 1 2 cbr 210 ------- 0 0.0 2.0 55 55
+ 1.21 0 1 cbr 210 ------- 0 0.0 2.0 56 56
- 1.21 0 1 cbr 210 ------- 0 0.0 2.0 56 56
r 1.210754 1 2 cbr 210 ------- 0 0.0 2.0 55 55
r 1.212168 0 1 cbr 210 ------- 0 0.0 2.0 56 56
+ 1.212168 1 2 cbr 210 ------- 0 0.0 2.0 56 56
- 1.212168 1 2 cbr 210 ------- 0 0.0 2.0 56 56
+ 1.21375 0 1 cbr 210 ------- 0 0.0 2.0 57 57
- 1.21375 0 1 cbr 210 ------- 0 0.0 2.0 57 57
r 1.214504 1 2 cbr 210 ------- 0 0.0 2.0 56 56
r 1.215918 0 1 cbr 210 ------- 0 0.0 2.0 57 57
+ 1.215918 1 2 cbr 210 ------- 0 0.0 2.0 57 57
- 1.215918 1 2 cbr 210 ------- 0 0.0 2.0 57 57
+ 1.2175 0 1 cbr 210 ------- 0 0.0 2.0 58 58
- 1.2175 0 1 cbr 210 ------- 0 0.0 2.0 58 58
r 1.218254 1 2 cbr 210 ------- 0 0.0 2.0 57 57
r 1.219668 0 1 cbr 210 ------- 0 0.0 2.0 58 58
+ 1.219668 1 2 cbr 210 ------- 0 0.0 2.0 58 58
- 1.219668 1 2 cbr 210 ------- 0 0.0 2.0 58 58
+ 1.22125 0 1 cbr 210 ------- 0 0.0 2.0 59 59
- 1.22125 0 1 cbr 210 ------- 0 0.0 2.0 59 59
r 1.222004 1 2 cbr 210 ------- 0 0.0 2.0 58 58
r 1.223418 0 1 cbr 210 ------- 0 0.0 2.0 59 59
+ 1.223418 1 2 cbr 210 ------- 0 0.0 2.0 59 59
- 1.223418 1 2 cbr 210 ------- 0 0.0 2.0 59 59
+ 1.225 0 1 cbr 210 ------- 0 0.0 2.0 60 60
- 1.225 0 1 cbr 210 ------- 0 0.0 2.0 60 60
r 1.225754 1 2 cbr 210 ------- 0 0.0 2.0 59 59
r 1.227168 0 1 cbr 210 ------- 0 0.0 2.0 60 60
+ 1.227168 1 2 cbr 210 ------- 0 0.0 2.0 60 60
- 1.227168 1 2 cbr 210 ------- 0 0.0 2.0 60 60
+ 1.22875 0 1 cbr 210 ------- 0 0.0 2.0 61 61
- 1.22875 0 1 cbr 210 ------- 0 0.0 2.0 61 61
r 1.229504 1 2 cbr 210 ------- 0 0.0 2.0 60 60
r 1.230918 0 1 cbr 210 ------- 0 0.0 2.0 61 61
+ 1.230918 1 2 cbr 210 ------- 0 0.0 2.0 61 61
- 1.230918 1 2 cbr 210 ------- 0 0.0 2.0 61 61
+ 1.2325 0 1 cbr 210 ------- 0 0.0 2.0 62 62
- 1.2325 0 1 cbr 210 ------- 0 0.0 2.0 62 62
r 1.233254 1 2 cbr 210 ------- 0 0.0 2.0 61 61
r 1.234668 0 1 cbr 210 ------- 0 0.0 2.0 62 62
+ 1.234668 1 2 cbr 210 ------- 0 0.0 2.0 62 62
- 1.234668 1 2 cbr 210 ------- 0 0.0 2.0 62 62
+ 1.23625 0 1 cbr 210 ------- 0 0.0 2.0 63 63
- 1.23625 0 1 cbr 210 ------- 0 0.0 2.0 63 63
r 1.237004 1 2 cbr 210 ------- 0 0.0 2.0 62 62
r 1.238418 0 1 cbr 210 ------- 0 0.0 2.0 63 63
+ 1.238418 1 2 cbr 210 ------- 0 0.0 2.0 63 63
- 1.238418 1 2 cbr 210 ------- 0 0.0 2.0 63 63
+ 1.24 0 1 cbr 210 ------- 0 0.0 2.0 64 64
- 1.24 0 1 cbr 210 ------- 0 0.0 2.0 64 64
r 1.240754 1 2 cbr 210 ------- 0 0.0 2.0 63 63
r 1.242168 0 1 cbr 210 ------- 0 0.0 2.0 64 64
+ 1.242168 1 2 cbr 210 ------- 0 0.0 2.0 64 64
- 1.242168 1 2 cbr 210 ------- 0 0.0 2.0 64 64
+ 1.24375 0 1 cbr 210 ------- 0 0.0 2.0 65 65
- 1.24375 0 1 cbr 210 ------- 0 0.0 2.0 65 65
r 1.244504 1 2 cbr 210 ------- 0 0.0 2.0 64 64
r 1.245918 0 1 cbr 210 ------- 0 0.0 2.0 65 65
+ 1.245918 1 2 cbr 210 ------- 0 0.0 2.0 65 65
- 1.245918 1 2 cbr 210 ------- 0 0.0 2.0 65 65
+ 1.2475 0 1 cbr 210 ------- 0 0.0 2.0 66 66
- 1.2475 0 1 cbr 210 ------- 0 0.0 2.0 66 66
r 1.248254 1 2 cbr 210 ------- 0 0.0 2.0 65 65
r 1.249668 0 1 cbr 210 ------- 0 0.0 2.0 66 66
+ 1.249668 1 2 cbr 210 ------- 0 0.0 2.0 66 66
- 1.249668 1 2 cbr 210 ------- 0 0.0 2.0 66 66
+ 1.25125 0 1 cbr 210 ------- 0 0.0 2.0 67 67
- 1.25125 0 1 cbr 210 ------- 0 0.0 2.0 67 67
r 1.252004 1 2 cbr 210 ------- 0 0.0 2.0 66 66
r 1.253418 0 1 cbr 210 ------- 0 0.0 2.0 67 67
+ 1.253418 1 2 cbr 210 ------- 0 0.0 2.0 67 67
- 1.253418 1 2 cbr 210 ------- 0 0.0 2.0 67 67
+ 1.255 0 1 cbr 210 ------- 0 0.0 2.0 68 68
- 1.255 0 1 cbr 210 ------- 0 0.0 2.0 68 68
r 1.255754 1 2 cbr 210 ------- 0 0.0 2.0 67 67
r 1.257168 0 1 cbr 210 ------- 0 0.0 2.0 68 68
+ 1.257168 1 2 cbr 210 ------- 0 0.0 2.0 68 68
- 1.257168 1 2 cbr 210 ------- 0 0.0 2.0 68 68
+ 1.25875 0 1 cbr 210 ------- 0 0.0 2.0 69 69
- 1.25875 0 1 cbr 210 ------- 0 0.0 2.0 69 69
r 1.259504 1 2 cbr 210 ------- 0 0.0 2.0 68 68
r 1.260918 0 1 cbr 210 ------- 0 0.0 2.0 69 69
+ 1.260918 1 2 cbr 210 ------- 0 0.0 2.0 69 69
- 1.260918 1 2 cbr 210 ------- 0 0.0 2.0 69 69
+ 1.2625 0 1 cbr 210 ------- 0 0.0 2.0 70 70
- 1.2625 0 1 cbr 210 ------- 0 0.0 2.0 70 70
r 1.263254 1 2 cbr 210 ------- 0 0.0 2.0 69 69
r 1.264668 0 1 cbr 210 ------- 0 0.0 2.0 70 70
+ 1.264668 1 2 cbr 210 ------- 0 0.0 2.0 70 70
- 1.264668 1 2 cbr 210 ------- 0 0.0 2.0 70 70
+ 1.26625 0 1 cbr 210 ------- 0 0.0 2.0 71 71
- 1.26625 0 1 cbr 210 ------- 0 0.0 2.0 71 71
r 1.267004 1 2 cbr 210 ------- 0 0.0 2.0 70 70
r 1.268418 0 1 cbr 210 ------- 0 0.0 2.0 71 71
+ 1.268418 1 2 cbr 210 ------- 0 0.0 2.0 71 71
- 1.268418 1 2 cbr 210 ------- 0 0.0 2.0 71 71
+ 1.27 0 1 cbr 210 ------- 0 0.0 2.0 72 72
- 1.27 0 1 cbr 210 ------- 0 0.0 2.0 72 72
r 1.270754 1 2 cbr 210 ------- 0 0.0 2.0 71 71
r 1.272168 0 1 cbr 210 ------- 0 0.0 2.0 72 72
+ 1.272168 1 2 cbr 210 ------- 0 0.0 2.0 72 72
- 1.272168 1 2 cbr 210 ------- 0 0.0 2.0 72 72
+ 1.27375 0 1 cbr 210 ------- 0 0.0 2.0 73 73
- 1.27375 0 1 cbr 210 ------- 0 0.0 2.0 73 73
r 1.274504 1 2 cbr 210 ------- 0 0.0 2.0 72 72
r 1.275918 0 1 cbr 210 ------- 0 0.0 2.0 73 73
+ 1.275918 1 2 cbr 210 ------- 0 0.0 2.0 73 73
- 1.275918 1 2 cbr 210 ------- 0 0.0 2.0 73 73
+ 1.2775 0 1 cbr 210 ------- 0 0.0 2.0 74 74
- 1.2775 0 1 cbr 210 ------- 0 0.0 2.0 74 74
r 1.278254 1 2 cbr 210 ------- 0 0.0 2.0 73 73
r 1.279668 0 1 cbr 210 ------- 0 0.0 2.0 74 74
+ 1.279668 1 2 cbr 210 ------- 0 0.0 2.0 74 74
- 1.279668 1 2 cbr 210 ------- 0 0.0 2.0 74 74
+ 1.28125 0 1 cbr 210 ------- 0 0.0 2.0 75 75
- 1.28125 0 1 cbr 210 ------- 0 0.0 2.0 75 75
r 1.282004 1 2 cbr 210 ------- 0 0.0 2.0 74 74
r 1.283418 0 1 cbr 210 ------- 0 0.0 2.0 75 75
+ 1.283418 1 2 cbr 210 ------- 0 0.0 2.0 75 75
- 1.283418 1 2 cbr 210 ------- 0 0.0 2.0 75 75
+ 1.285 0 1 cbr 210 ------- 0 0.0 2.0 76 76
- 1.285 0 1 cbr 210 ------- 0 0.0 2.0 76 76
r 1.285754 1 2 cbr 210 ------- 0 0.0 2.0 75 75
r 1.287168 0 1 cbr 210 ------- 0 0.0 2.0 76 76
+ 1.287168 1 2 cbr 210 ------- 0 0.0 2.0 76 76
- 1.287168 1 2 cbr 210 ------- 0 0.0 2.0 76 76
+ 1.28875 0 1 cbr 210 ------- 0 0.0 2.0 77 77
- 1.28875 0 1 cbr 210 ------- 0 0.0 2.0 77 77
r 1.289504 1 2 cbr 210 ------- 0 0.0 2.0 76 76
r 1.290918 0 1 cbr 210 ------- 0 0.0 2.0 77 77
+ 1.290918 1 2 cbr 210 ------- 0 0.0 2.0 77 77
- 1.290918 1 2 cbr 210 ------- 0 0.0 2.0 77 77
+ 1.2925 0 1 cbr 210 ------- 0 0.0 2.0 78 78
- 1.2925 0 1 cbr 210 ------- 0 0.0 2.0 78 78
r 1.293254 1 2 cbr 210 ------- 0 0.0 2.0 77 77
r 1.294668 0 1 cbr 210 ------- 0 0.0 2.0 78 78
+ 1.294668 1 2 cbr 210 ------- 0 0.0 2.0 78 78
- 1.294668 1 2 cbr 210 ------- 0 0.0 2.0 78 78
+ 1.29625 0 1 cbr 210 ------- 0 0.0 2.0 79 79
- 1.29625 0 1 cbr 210 ------- 0 0.0 2.0 79 79
r 1.297004 1 2 cbr 210 ------- 0 0.0 2.0 78 78
r 1.298418 0 1 cbr 210 ------- 0 0.0 2.0 79 79
+ 1.298418 1 2 cbr 210 ------- 0 0.0 2.0 79 79
- 1.298418 1 2 cbr 210 ------- 0 0.0 2.0 79 79
+ 1.3 0 1 cbr 210 ------- 0 0.0 2.0 80 80
- 1.3 0 1 cbr 210 ------- 0 0.0 2.0 80 80
r 1.300754 1 2 cbr 210 ------- 0 0.0 2.0 79 79
r 1.302168 0 1 cbr 210 ------- 0 0.0 2.0 80 80
+ 1.302168 1 2 cbr 210 ------- 0 0.0 2.0 80 80
- 1.302168 1 2 cbr 210 ------- 0 0.0 2.0 80 80
+ 1.30375 0 1 cbr 210 ------- 0 0.0 2.0 81 81
- 1.30375 0 1 cbr 210 ------- 0 0.0 2.0 81 81
r 1.304504 1 2 cbr 210 ------- 0 0.0 2.0 80 80
r 1.305918 0 1 cbr 210 ------- 0 0.0 2.0 81 81
+ 1.305918 1 2 cbr 210 ------- 0 0.0 2.0 81 81
- 1.305918 1 2 cbr 210 ------- 0 0.0 2.0 81 81
+ 1.3075 0 1 cbr 210 ------- 0 0.0 2.0 82 82
- 1.3075 0 1 cbr 210 ------- 0 0.0 2.0 82 82
r 1.308254 1 2 cbr 210 ------- 0 0.0 2.0 81 81
r 1.309668 0 1 cbr 210 ------- 0 0.0 2.0 82 82
+ 1.309668 1 2 cbr 210 ------- 0 0.0 2.0 82 82
- 1.309668 1 2 cbr 210 ------- 0 0.0 2.0 82 82
+ 1.31125 0 1 cbr 210 ------- 0 0.0 2.0 83 83
- 1.31125 0 1 cbr 210 ------- 0 0.0 2.0 83 83
r 1.312004 1 2 cbr 210 ------- 0 0.0 2.0 82 82
r 1.313418 0 1 cbr 210 ------- 0 0.0 2.0 83 83
+ 1.313418 1 2 cbr 210 ------- 0 0.0 2.0 83 83
- 1.313418 1 2 cbr 210 ------- 0 0.0 2.0 83 83
+ 1.315 0 1 cbr 210 ------- 0 0.0 2.0 84 84
- 1.315 0 1 cbr 210 ------- 0 0.0 2.0 84 84
r 1.315754 1 2 cbr 210 ------- 0 0.0 2.0 83 83
r 1.317168 0 1 cbr 210 ------- 0 0.0 2.0 84 84
+ 1.317168 1 2 cbr 210 ------- 0 0.0 2.0 84 84
- 1.317168 1 2 cbr 210 ------- 0 0.0 2.0 84 84
+ 1.31875 0 1 cbr 210 ------- 0 0.0 2.0 85 85
- 1.31875 0 1 cbr 210 ------- 0 0.0 2.0 85 85
r 1.319504 1 2 cbr 210 ------- 0 0.0 2.0 84 84
r 1.320918 0 1 cbr 210 ------- 0 0.0 2.0 85 85
+ 1.320918 1 2 cbr 210 ------- 0 0.0 2.0 85 85
- 1.320918 1 2 cbr 210 ------- 0 0.0 2.0 85 85
+ 1.3225 0 1 cbr 210 ------- 0 0.0 2.0 86 86
- 1.3225 0 1 cbr 210 ------- 0 0.0 2.0 86 86
r 1.323254 1 2 cbr 210 ------- 0 0.0 2.0 85 85
r 1.324668 0 1 cbr 210 ------- 0 0.0 2.0 86 86
+ 1.324668 1 2 cbr 210 ------- 0 0.0 2.0 86 86
- 1.324668 1 2 cbr 210 ------- 0 0.0 2.0 86 86
+ 1.32625 0 1 cbr 210 ------- 0 0.0 2.0 87 87
- 1.32625 0 1 cbr 210 ------- 0 0.0 2.0 87 87
r 1.327004 1 2 cbr 210 ------- 0 0.0 2.0 86 86
r 1.328418 0 1 cbr 210 ------- 0 0.0 2.0 87 87
+ 1.328418 1 2 cbr 210 ------- 0 0.0 2.0 87 87
- 1.328418 1 2 cbr 210 ------- 0 0.0 2.0 87 87
+ 1.33 0 1 cbr 210 ------- 0 0.0 2.0 88 88
- 1.33 0 1 cbr 210 ------- 0 0.0 2.0 88 88
r 1.330754 1 2 cbr 210 ------- 0 0.0 2.0 87 87
r 1.332168 0 1 cbr 210 ------- 0 0.0 2.0 88 88
+ 1.332168 1 2 cbr 210 ------- 0 0.0 2.0 88 88
- 1.332168 1 2 cbr 210 ------- 0 0.0 2.0 88 88
+ 1.33375 0 1 cbr 210 ------- 0 0.0 2.0 89 89
- 1.33375 0 1 cbr 210 ------- 0 0.0 2.0 89 89
r 1.334504 1 2 cbr 210 ------- 0 0.0 2.0 88 88
r 1.335918 0 1 cbr 210 ------- 0 0.0 2.0 89 89
+ 1.335918 1 2 cbr 210 ------- 0 0.0 2.0 89 89
- 1.335918 1 2 cbr 210 ------- 0 0.0 2.0 89 89
+ 1.3375 0 1 cbr 210 ------- 0 0.0 2.0 90 90
- 1.3375 0 1 cbr 210 ------- 0 0.0 2.0 90 90
r 1.338254 1 2 cbr 210 ------- 0 0.0 2.0 89 89
r 1.339668 0 1 cbr 210 ------- 0 0.0 2.0 90 90
+ 1.339668 1 2 cbr 210 ------- 0 0.0 2.0 90 90
- 1.339668 1 2 cbr 210 ------- 0 0.0 2.0 90 90
+ 1.34125 0 1 cbr 210 ------- 0 0.0 2.0 91 91
- 1.34125 0 1 cbr 210 ------- 0 0.0 2.0 91 91
r 1.342004 1 2 cbr 210 ------- 0 0.0 2.0 90 90
r 1.343418 0 1 cbr 210 ------- 0 0.0 2.0 91 91
+ 1.343418 1 2 cbr 210 ------- 0 0.0 2.0 91 91
- 1.343418 1 2 cbr 210 ------- 0 0.0 2.0 91 91
+ 1.345 0 1 cbr 210 ------- 0 0.0 2.0 92 92
- 1.345 0 1 cbr 210 ------- 0 0.0 2.0 92 92
r 1.345754 1 2 cbr 210 ------- 0 0.0 2.0 91 91
r 1.347168 0 1 cbr 210 ------- 0 0.0 2.0 92 92
+ 1.347168 1 2 cbr 210 ------- 0 0.0 2.0 92 92
- 1.347168 1 2 cbr 210 ------- 0 0.0 2.0 92 92
+ 1.34875 0 1 cbr 210 ------- 0 0.0 2.0 93 93
- 1.34875 0 1 cbr 210 ------- 0 0.0 2.0 93 93
r 1.349504 1 2 cbr 210 ------- 0 0.0 2.0 92 92
r 1.350918 0 1 cbr 210 ------- 0 0.0 2.0 93 93
+ 1.350918 1 2 cbr 210 ------- 0 0.0 2.0 93 93
- 1.350918 1 2 cbr 210 ------- 0 0.0 2.0 93 93
+ 1.3525 0 1 cbr 210 ------- 0 0.0 2.0 94 94
- 1.3525 0 1 cbr 210 ------- 0 0.0 2.0 94 94
r 1.353254 1 2 cbr 210 ------- 0 0.0 2.0 93 93
r 1.354668 0 1 cbr 210 ------- 0 0.0 2.0 94 94
+ 1.354668 1 2 cbr 210 ------- 0 0.0 2.0 94 94
- 1.354668 1 2 cbr 210 ------- 0 0.0 2.0 94 94
+ 1.35625 0 1 cbr 210 ------- 0 0.0 2.0 95 95
- 1.35625 0 1 cbr 210 ------- 0 0.0 2.0 95 95
r 1.357004 1 2 cbr 210 ------- 0 0.0 2.0 94 94
r 1.358418 0 1 cbr 210 ------- 0 0.0 2.0 95 95
+ 1.358418 1 2 cbr 210 ------- 0 0.0 2.0 95 95
- 1.358418 1 2 cbr 210 ------- 0 0.0 2.0 95 95
+ 1.36 0 1 cbr 210 ------- 0 0.0 2.0 96 96
- 1.36 0 1 cbr 210 ------- 0 0.0 2.0 96 96
r 1.360754 1 2 cbr 210 ------- 0 0.0 2.0 95 95
r 1.362168 0 1 cbr 210 ------- 0 0.0 2.0 96 96
+ 1.362168 1 2 cbr 210 ------- 0 0.0 2.0 96 96
- 1.362168 1 2 cbr 210 ------- 0 0.0 2.0 96 96
+ 1.36375 0 1 cbr 210 ------- 0 0.0 2.0 97 97
- 1.36375 0 1 cbr 210 ------- 0 0.0 2.0 97 97
r 1.364504 1 2 cbr 210 ------- 0 0.0 2.0 96 96
r 1.365918 0 1 cbr 210 ------- 0 0.0 2.0 97 97
+ 1.365918 1 2 cbr 210 ------- 0 0.0 2.0 97 97
- 1.365918 1 2 cbr 210 ------- 0 0.0 2.0 97 97
+ 1.3675 0 1 cbr 210 ------- 0 0.0 2.0 98 98
- 1.3675 0 1 cbr 210 ------- 0 0.0 2.0 98 98
r 1.368254 1 2 cbr 210 ------- 0 0.0 2.0 97 97
r 1.369668 0 1 cbr 210 ------- 0 0.0 2.0 98 98
+ 1.369668 1 2 cbr 210 ------- 0 0.0 2.0 98 98
- 1.369668 1 2 cbr 210 ------- 0 0.0 2.0 98 98
+ 1.37125 0 1 cbr 210 ------- 0 0.0 2.0 99 99
- 1.37125 0 1 cbr 210 ------- 0 0.0 2.0 99 99
r 1.372004 1 2 cbr 210 ------- 0 0.0 2.0 98 98
r 1.373418 0 1 cbr 210 ------- 0 0.0 2.0 99 99
+ 1.373418 1 2 cbr 210 ------- 0 0.0 2.0 99 99
- 1.373418 1 2 cbr 210 ------- 0 0.0 2.0 99 99
+ 1.375 0 1 cbr 210 ------- 0 0.0 2.0 100 100
- 1.375 0 1 cbr 210 ------- 0 0.0 2.0 100 100
r 1.375754 1 2 cbr 210 ------- 0 0.0 2.0 99 99
r 1.377168 0 1 cbr 210 ------- 0 0.0 2.0 100 100
+ 1.377168 1 2 cbr 210 ------- 0 0.0 2.0 100 100
- 1.377168 1 2 cbr 210 ------- 0 0.0 2.0 100 100
+ 1.37875 0 1 cbr 210 ------- 0 0.0 2.0 101 101
- 1.37875 0 1 cbr 210 ------- 0 0.0 2.0 101 101
r 1.379504 1 2 cbr 210 ------- 0 0.0 2.0 100 100
r 1.380918 0 1 cbr 210 ------- 0 0.0 2.0 101 101
+ 1.380918 1 2 cbr 210 ------- 0 0.0 2.0 101 101
- 1.380918 1 2 cbr 210 ------- 0 0.0 2.0 101 101
+ 1.3825 0 1 cbr 210 ------- 0 0.0 2.0 102 102
- 1.3825 0 1 cbr 210 ------- 0 0.0 2.0 102 102
r 1.383254 1 2 cbr 210 ------- 0 0.0 2.0 101 101
r 1.384668 0 1 cbr 210 ------- 0 0.0 2.0 102 102
+ 1.384668 1 2 cbr 210 ------- 0 0.0 2.0 102 102
- 1.384668 1 2 cbr 210 ------- 0 0.0 2.0 102 102
+ 1.38625 0 1 cbr 210 ------- 0 0.0 2.0 103 103
- 1.38625 0 1 cbr 210 ------- 0 0.0 2.0 103 103
r 1.387004 1 2 cbr 210 ------- 0 0.0 2.0 102 102
r 1.388418 0 1 cbr 210 ------- 0 0.0 2.0 103 103
+ 1.388418 1 2 cbr 210 ------- 0 0.0 2.0 103 103
- 1.388418 1 2 cbr 210 ------- 0 0.0 2.0 103 103
+ 1.39 0 1 cbr 210 ------- 0 0.0 2.0 104 104
- 1.39 0 1 cbr 210 ------- 0 0.0 2.0 104 104
r 1.390754 1 2 cbr 210 ------- 0 0.0 2.0 103 103
r 1.392168 0 1 cbr 210 ------- 0 0.0 2.0 104 104
+ 1.392168 1 2 cbr 210 ------- 0 0.0 2.0 104 104
- 1.392168 1 2 cbr 210 ------- 0 0.0 2.0 104 104
+ 1.39375 0 1 cbr 210 ------- 0 0.0 2.0 105 105
- 1.39375 0 1 cbr 210 ------- 0 0.0 2.0 105 105
r 1.394504 1 2 cbr 210 ------- 0 0.0 2.0 104 104
r 1.395918 0 1 cbr 210 ------- 0 0.0 2.0 105 105
+ 1.395918 1 2 cbr 210 ------- 0 0.0 2.0 105 105
- 1.395918 1 2 cbr 210 ------- 0 0.0 2.0 105 105
+ 1.3975 0 1 cbr 210 ------- 0 0.0 2.0 106 106
- 1.3975 0 1 cbr 210 ------- 0 0.0 2.0 106 106
r 1.398254 1 2 cbr 210 ------- 0 0.0 2.0 105 105
r 1.399668 0 1 cbr 210 ------- 0 0.0 2.0 106 106
+ 1.399668 1 2 cbr 210 ------- 0 0.0 2.0 106 106
- 1.399668 1 2 cbr 210 ------- 0 0.0 2.0 106 106
+ 1.40125 0 1 cbr 210 ------- 0 0.0 2.0 107 107
- 1.40125 0 1 cbr 210 ------- 0 0.0 2.0 107 107
r 1.402004 1 2 cbr 210 ------- 0 0.0 2.0 106 106
r 1.403418 0 1 cbr 210 ------- 0 0.0 2.0 107 107
+ 1.403418 1 2 cbr 210 ------- 0 0.0 2.0 107 107
- 1.403418 1 2 cbr 210 ------- 0 0.0 2.0 107 107