+ 0.5 0 1 cbr 210 ------- 0 0.0 2.0 0 0
- 0.5 0 1 cbr 210 ------- 0 0.0 2.0 0 0
+ 0.5 0 1 tcp 40 ------- 1 0.1 2.1 0 1
- 0.500168 0 1 tcp 40 ------- 1 0.1 2.1 0 1
r 0.502168 0 1 cbr 210 ------- 0 0.0 2.0 0 0
+ 0.502168 1 2 cbr 210 ------- 0 0.0 2.0 0 0
- 0.502168 1 2 cbr 210 ------- 0 0.0 2.0 0 0
r 0.5022 0 1 tcp 40 ------- 1 0.1 2.1 0 1
+ 0.5022 1 2 tcp 40 ------- 1 0.1 2.1 0 1
- 0.502336 1 2 tcp 40 ------- 1 0.1 2.1 0 1
+ 0.50375 0 1 cbr 210 ------- 0 0.0 2.0 1 2
- 0.50375 0 1 cbr 210 ------- 0 0.0 2.0 1 2
r 0.504336 1 2 cbr 210 ------- 0 0.0 2.0 0 0
r 0.504368 1 2 tcp 40 ------- 1 0.1 2.1 0 1
+ 0.504368 2 1 ack 40 ------- 1 2.1 0.1 0 3
- 0.504368 2 1 ack 40 ------- 1 2.1 0.1 0 3
r 0.505918 0 1 cbr 210 ------- 0 0.0 2.0 1 2
+ 0.505918 1 2 cbr 210 ------- 0 0.0 2.0 1 2
- 0.505918 1 2 cbr 210 ------- 0 0.0 2.0 1 2
r 0.5064 2 1 ack 40 ------- 1 2.1 0.1 0 3
+ 0.5064 1 0 ack 40 ------- 1 2.1 0.1 0 3
- 0.5064 1 0 ack 40 ------- 1 2.1 0.1 0 3
+ 0.5075 0 1 cbr 210 ------- 0 0.0 2.0 2 4
- 0.5075 0 1 cbr 210 ------- 0 0.0 2.0 2 4
r 0.508086 1 2 cbr 210 ------- 0 0.0 2.0 1 2
r 0.508432 1 0 ack 40 ------- 1 2.1 0.1 0 3
+ 0.508432 0 1 tcp 1040 ------- 1 0.1 2.1 1 5
- 0.508432 0 1 tcp 1040 ------- 1 0.1 2.1 1 5
+ 0.508432 0 1 tcp 1040 ------- 1 0.1 2.1 2 6
- 0.509264 0 1 tcp 1040 ------- 1 0.1 2.1 2 6
r 0.509668 0 1 cbr 210 ------- 0 0.0 2.0 2 4
+ 0.509668 1 2 cbr 210 ------- 0 0.0 2.0 2 4
- 0.509668 1 2 cbr 210 ------- 0 0.0 2.0 2 4
+ 0.51125 0 1 cbr 210 ------- 0 0.0 2.0 3 7
- 0.51125 0 1 cbr 210 ------- 0 0.0 2.0 3 7
r 0.511264 0 1 tcp 1040 ------- 1 0.1 2.1 1 5
+ 0.511264 1 2 tcp 1040 ------- 1 0.1 2.1 1 5
- 0.511264 1 2 tcp 1040 ------- 1 0.1 2.1 1 5
r 0.511836 1 2 cbr 210 ------- 0 0.0 2.0 2 4
r 0.512096 0 1 tcp 1040 ------- 1 0.1 2.1 2 6
+ 0.512096 1 2 tcp 1040 ------- 1 0.1 2.1 2 6
- 0.512096 1 2 tcp 1040 ------- 1 0.1 2.1 2 6
r 0.513418 0 1 cbr 210 ------- 0 0.0 2.0 3 7
+ 0.513418 1 2 cbr 210 ------- 0 0.0 2.0 3 7
- 0.513418 1 2 cbr 210 ------- 0 0.0 2.0 3 7
r 0.514096 1 2 tcp 1040 ------- 1 0.1 2.1 1 5
+ 0.514096 2 1 ack 40 ------- 1 2.1 0.1 1 8
- 0.514096 2 1 ack 40 ------- 1 2.1 0.1 1 8
r 0.514928 1 2 tcp 1040 ------- 1 0.1 2.1 2 6
+ 0.514928 2 1 ack 40 ------- 1 2.1 0.1 2 9
- 0.514928 2 1 ack 40 ------- 1 2.1 0.1 2 9
+ 0.515 0 1 cbr 210 ------- 0 0.0 2.0 4 10
- 0.515 0 1 cbr 210 ------- 0 0.0 2.0 4 10
r 0.515586 1 2 cbr 210 ------- 0 0.0 2.0 3 7
r 0.516128 2 1 ack 40 ------- 1 2.1 0.1 1 8
+ 0.516128 1 0 ack 40 ------- 1 2.1 0.1 1 8
- 0.516128 1 0 ack 40 ------- 1 2.1 0.1 1 8
r 0.51696 2 1 ack 40 ------- 1 2.1 0.1 2 9
+ 0.51696 1 0 ack 40 ------- 1 2.1 0.1 2 9
- 0.51696 1 0 ack 40 ------- 1 2.1 0.1 2 9
r 0.517168 0 1 cbr 210 ------- 0 0.0 2.0 4 10
+ 0.517168 1 2 cbr 210 ------- 0 0.0 2.0 4 10
- 0.517168 1 2 cbr 210 ------- 0 0.0 2.0 4 10
r 0.51816 1 0 ack 40 ------- 1 2.1 0.1 1 8
+ 0.51816 0 1 tcp 1040 ------- 1 0.1 2.1 3 11
- 0.51816 0 1 tcp 1040 ------- 1 0.1 2.1 3 11
+ 0.51816 0 1 tcp 1040 ------- 1 0.1 2.1 4 12
+ 0.51875 0 1 cbr 210 ------- 0 0.0 2.0 5 13
r 0.518992 1 0 ack 40 ------- 1 2.1 0.1 2 9
+ 0.518992 0 1 tcp 1040 ------- 1 0.1 2.1 5 14
+ 0.518992 0 1 tcp 1040 ------- 1 0.1 2.1 6 15
- 0.518992 0 1 tcp 1040 ------- 1 0.1 2.1 4 12
r 0.519336 1 2 cbr 210 ------- 0 0.0 2.0 4 10
- 0.519824 0 1 cbr 210 ------- 0 0.0 2.0 5 13
- 0.519992 0 1 tcp 1040 ------- 1 0.1 2.1 5 14
- 0.520824 0 1 tcp 1040 ------- 1 0.1 2.1 6 15
r 0.520992 0 1 tcp 1040 ------- 1 0.1 2.1 3 11
+ 0.520992 1 2 tcp 1040 ------- 1 0.1 2.1 3 11
- 0.520992 1 2 tcp 1040 ------- 1 0.1 2.1 3 11
r 0.521824 0 1 tcp 1040 ------- 1 0.1 2.1 4 12
+ 0.521824 1 2 tcp 1040 ------- 1 0.1 2.1 4 12
- 0.521824 1 2 tcp 1040 ------- 1 0.1 2.1 4 12
r 0.521992 0 1 cbr 210 ------- 0 0.0 2.0 5 13
+ 0.521992 1 2 cbr 210 ------- 0 0.0 2.0 5 13
+ 0.5225 0 1 cbr 210 ------- 0 0.0 2.0 6 16
- 0.5225 0 1 cbr 210 ------- 0 0.0 2.0 6 16
- 0.522656 1 2 cbr 210 ------- 0 0.0 2.0 5 13
r 0.522824 0 1 tcp 1040 ------- 1 0.1 2.1 5 14
+ 0.522824 1 2 tcp 1040 ------- 1 0.1 2.1 5 14
- 0.522824 1 2 tcp 1040 ------- 1 0.1 2.1 5 14
r 0.523656 0 1 tcp 1040 ------- 1 0.1 2.1 6 15
+ 0.523656 1 2 tcp 1040 ------- 1 0.1 2.1 6 15
- 0.523656 1 2 tcp 1040 ------- 1 0.1 2.1 6 15
r 0.523824 1 2 tcp 1040 ------- 1 0.1 2.1 3 11
+ 0.523824 2 1 ack 40 ------- 1 2.1 0.1 3 17
- 0.523824 2 1 ack 40 ------- 1 2.1 0.1 3 17
r 0.524656 1 2 tcp 1040 ------- 1 0.1 2.1 4 12
+ 0.524656 2 1 ack 40 ------- 1 2.1 0.1 4 18
- 0.524656 2 1 ack 40 ------- 1 2.1 0.1 4 18
r 0.524668 0 1 cbr 210 ------- 0 0.0 2.0 6 16
+ 0.524668 1 2 cbr 210 ------- 0 0.0 2.0 6 16
- 0.524668 1 2 cbr 210 ------- 0 0.0 2.0 6 16
r 0.524824 1 2 cbr 210 ------- 0 0.0 2.0 5 13
r 0.525656 1 2 tcp 1040 ------- 1 0.1 2.1 5 14
+ 0.525656 2 1 ack 40 ------- 1 2.1 0.1 5 19
- 0.525656 2 1 ack 40 ------- 1 2.1 0.1 5 19
r 0.525856 2 1 ack 40 ------- 1 2.1 0.1 3 17
+ 0.525856 1 0 ack 40 ------- 1 2.1 0.1 3 17
- 0.525856 1 0 ack 40 ------- 1 2.1 0.1 3 17
+ 0.52625 0 1 cbr 210 ------- 0 0.0 2.0 7 20
- 0.52625 0 1 cbr 210 ------- 0 0.0 2.0 7 20
r 0.526488 1 2 tcp 1040 ------- 1 0.1 2.1 6 15
+ 0.526488 2 1 ack 40 ------- 1 2.1 0.1 6 21
- 0.526488 2 1 ack 40 ------- 1 2.1 0.1 6 21
r 0.526688 2 1 ack 40 ------- 1 2.1 0.1 4 18
+ 0.526688 1 0 ack 40 ------- 1 2.1 0.1 4 18
- 0.526688 1 0 ack 40 ------- 1 2.1 0.1 4 18
r 0.526836 1 2 cbr 210 ------- 0 0.0 2.0 6 16
r 0.527688 2 1 ack 40 ------- 1 2.1 0.1 5 19
+ 0.527688 1 0 ack 40 ------- 1 2.1 0.1 5 19
- 0.527688 1 0 ack 40 ------- 1 2.1 0.1 5 19
r 0.527888 1 0 ack 40 ------- 1 2.1 0.1 3 17
+ 0.527888 0 1 tcp 1040 ------- 1 0.1 2.1 7 22
- 0.527888 0 1 tcp 1040 ------- 1 0.1 2.1 7 22
+ 0.527888 0 1 tcp 1040 ------- 1 0.1 2.1 8 23
r 0.528418 0 1 cbr 210 ------- 0 0.0 2.0 7 20
+ 0.528418 1 2 cbr 210 ------- 0 0.0 2.0 7 20
- 0.528418 1 2 cbr 210 ------- 0 0.0 2.0 7 20
r 0.52852 2 1 ack 40 ------- 1 2.1 0.1 6 21
+ 0.52852 1 0 ack 40 ------- 1 2.1 0.1 6 21
- 0.52852 1 0 ack 40 ------- 1 2.1 0.1 6 21
r 0.52872 1 0 ack 40 ------- 1 2.1 0.1 4 18
+ 0.52872 0 1 tcp 1040 ------- 1 0.1 2.1 9 24
+ 0.52872 0 1 tcp 1040 ------- 1 0.1 2.1 10 25
- 0.52872 0 1 tcp 1040 ------- 1 0.1 2.1 8 23
- 0.529552 0 1 tcp 1040 ------- 1 0.1 2.1 9 24
r 0.52972 1 0 ack 40 ------- 1 2.1 0.1 5 19
+ 0.52972 0 1 tcp 1040 ------- 1 0.1 2.1 11 26
+ 0.52972 0 1 tcp 1040 ------- 1 0.1 2.1 12 27
+ 0.53 0 1 cbr 210 ------- 0 0.0 2.0 8 28
- 0.530384 0 1 tcp 1040 ------- 1 0.1 2.1 10 25
r 0.530552 1 0 ack 40 ------- 1 2.1 0.1 6 21
+ 0.530552 0 1 tcp 1040 ------- 1 0.1 2.1 13 29
+ 0.530552 0 1 tcp 1040 ------- 1 0.1 2.1 14 30
r 0.530586 1 2 cbr 210 ------- 0 0.0 2.0 7 20
r 0.53072 0 1 tcp 1040 ------- 1 0.1 2.1 7 22
+ 0.53072 1 2 tcp 1040 ------- 1 0.1 2.1 7 22
- 0.53072 1 2 tcp 1040 ------- 1 0.1 2.1 7 22
- 0.531216 0 1 tcp 1040 ------- 1 0.1 2.1 11 26
r 0.531552 0 1 tcp 1040 ------- 1 0.1 2.1 8 23
+ 0.531552 1 2 tcp 1040 ------- 1 0.1 2.1 8 23
- 0.531552 1 2 tcp 1040 ------- 1 0.1 2.1 8 23
- 0.532048 0 1 tcp 1040 ------- 1 0.1 2.1 12 27
r 0.532384 0 1 tcp 1040 ------- 1 0.1 2.1 9 24
+ 0.532384 1 2 tcp 1040 ------- 1 0.1 2.1 9 24
- 0.532384 1 2 tcp 1040 ------- 1 0.1 2.1 9 24
- 0.53288 0 1 cbr 210 ------- 0 0.0 2.0 8 28
- 0.533048 0 1 tcp 1040 ------- 1 0.1 2.1 13 29
r 0.533216 0 1 tcp 1040 ------- 1 0.1 2.1 10 25
+ 0.533216 1 2 tcp 1040 ------- 1 0.1 2.1 10 25
- 0.533216 1 2 tcp 1040 ------- 1 0.1 2.1 10 25
r 0.533552 1 2 tcp 1040 ------- 1 0.1 2.1 7 22
+ 0.533552 2 1 ack 40 ------- 1 2.1 0.1 7 31
- 0.533552 2 1 ack 40 ------- 1 2.1 0.1 7 31
+ 0.53375 0 1 cbr 210 ------- 0 0.0 2.0 9 32
- 0.53388 0 1 tcp 1040 ------- 1 0.1 2.1 14 30
r 0.534048 0 1 tcp 1040 ------- 1 0.1 2.1 11 26
+ 0.534048 1 2 tcp 1040 ------- 1 0.1 2.1 11 26
- 0.534048 1 2 tcp 1040 ------- 1 0.1 2.1 11 26
r 0.534384 1 2 tcp 1040 ------- 1 0.1 2.1 8 23
+ 0.534384 2 1 ack 40 ------- 1 2.1 0.1 8 33
- 0.534384 2 1 ack 40 ------- 1 2.1 0.1 8 33
- 0.534712 0 1 cbr 210 ------- 0 0.0 2.0 9 32
r 0.53488 0 1 tcp 1040 ------- 1 0.1 2.1 12 27
+ 0.53488 1 2 tcp 1040 ------- 1 0.1 2.1 12 27
- 0.53488 1 2 tcp 1040 ------- 1 0.1 2.1 12 27
r 0.535048 0 1 cbr 210 ------- 0 0.0 2.0 8 28
+ 0.535048 1 2 cbr 210 ------- 0 0.0 2.0 8 28
r 0.535216 1 2 tcp 1040 ------- 1 0.1 2.1 9 24
+ 0.535216 2 1 ack 40 ------- 1 2.1 0.1 9 34
- 0.535216 2 1 ack 40 ------- 1 2.1 0.1 9 34
r 0.535584 2 1 ack 40 ------- 1 2.1 0.1 7 31
+ 0.535584 1 0 ack 40 ------- 1 2.1 0.1 7 31
- 0.535584 1 0 ack 40 ------- 1 2.1 0.1 7 31
- 0.535712 1 2 cbr 210 ------- 0 0.0 2.0 8 28
r 0.53588 0 1 tcp 1040 ------- 1 0.1 2.1 13 29
+ 0.53588 1 2 tcp 1040 ------- 1 0.1 2.1 13 29
- 0.53588 1 2 tcp 1040 ------- 1 0.1 2.1 13 29
r 0.536048 1 2 tcp 1040 ------- 1 0.1 2.1 10 25
+ 0.536048 2 1 ack 40 ------- 1 2.1 0.1 10 35
- 0.536048 2 1 ack 40 ------- 1 2.1 0.1 10 35
r 0.536416 2 1 ack 40 ------- 1 2.1 0.1 8 33
+ 0.536416 1 0 ack 40 ------- 1 2.1 0.1 8 33
- 0.536416 1 0 ack 40 ------- 1 2.1 0.1 8 33
r 0.536712 0 1 tcp 1040 ------- 1 0.1 2.1 14 30
+ 0.536712 1 2 tcp 1040 ------- 1 0.1 2.1 14 30
- 0.536712 1 2 tcp 1040 ------- 1 0.1 2.1 14 30
r 0.53688 1 2 tcp 1040 ------- 1 0.1 2.1 11 26
+ 0.53688 2 1 ack 40 ------- 1 2.1 0.1 11 36
- 0.53688 2 1 ack 40 ------- 1 2.1 0.1 11 36
r 0.53688 0 1 cbr 210 ------- 0 0.0 2.0 9 32
+ 0.53688 1 2 cbr 210 ------- 0 0.0 2.0 9 32
r 0.537248 2 1 ack 40 ------- 1 2.1 0.1 9 34
+ 0.537248 1 0 ack 40 ------- 1 2.1 0.1 9 34
- 0.537248 1 0 ack 40 ------- 1 2.1 0.1 9 34
+ 0.5375 0 1 cbr 210 ------- 0 0.0 2.0 10 37
- 0.5375 0 1 cbr 210 ------- 0 0.0 2.0 10 37
- 0.537544 1 2 cbr 210 ------- 0 0.0 2.0 9 32
r 0.537616 1 0 ack 40 ------- 1 2.1 0.1 7 31
+ 0.537616 0 1 tcp 1040 ------- 1 0.1 2.1 15 38
+ 0.537616 0 1 tcp 1040 ------- 1 0.1 2.1 16 39
- 0.537668 0 1 tcp 1040 ------- 1 0.1 2.1 15 38
r 0.537712 1 2 tcp 1040 ------- 1 0.1 2.1 12 27
+ 0.537712 2 1 ack 40 ------- 1 2.1 0.1 12 40
- 0.537712 2 1 ack 40 ------- 1 2.1 0.1 12 40
r 0.53788 1 2 cbr 210 ------- 0 0.0 2.0 8 28
r 0.53808 2 1 ack 40 ------- 1 2.1 0.1 10 35
+ 0.53808 1 0 ack 40 ------- 1 2.1 0.1 10 35
- 0.53808 1 0 ack 40 ------- 1 2.1 0.1 10 35
r 0.538448 1 0 ack 40 ------- 1 2.1 0.1 8 33
+ 0.538448 0 1 tcp 1040 ------- 1 0.1 2.1 17 41
+ 0.538448 0 1 tcp 1040 ------- 1 0.1 2.1 18 42
- 0.5385 0 1 tcp 1040 ------- 1 0.1 2.1 16 39
r 0.538712 1 2 tcp 1040 ------- 1 0.1 2.1 13 29
+ 0.538712 2 1 ack 40 ------- 1 2.1 0.1 13 43
- 0.538712 2 1 ack 40 ------- 1 2.1 0.1 13 43
r 0.538912 2 1 ack 40 ------- 1 2.1 0.1 11 36
+ 0.538912 1 0 ack 40 ------- 1 2.1 0.1 11 36
- 0.538912 1 0 ack 40 ------- 1 2.1 0.1 11 36
r 0.53928 1 0 ack 40 ------- 1 2.1 0.1 9 34
+ 0.53928 0 1 tcp 1040 ------- 1 0.1 2.1 19 44
+ 0.53928 0 1 tcp 1040 ------- 1 0.1 2.1 20 45
- 0.539332 0 1 tcp 1040 ------- 1 0.1 2.1 17 41
r 0.539544 1 2 tcp 1040 ------- 1 0.1 2.1 14 30
+ 0.539544 2 1 ack 40 ------- 1 2.1 0.1 14 46
- 0.539544 2 1 ack 40 ------- 1 2.1 0.1 14 46
r 0.539668 0 1 cbr 210 ------- 0 0.0 2.0 10 37
+ 0.539668 1 2 cbr 210 ------- 0 0.0 2.0 10 37
- 0.539668 1 2 cbr 210 ------- 0 0.0 2.0 10 37
r 0.539712 1 2 cbr 210 ------- 0 0.0 2.0 9 32
r 0.539744 2 1 ack 40 ------- 1 2.1 0.1 12 40
+ 0.539744 1 0 ack 40 ------- 1 2.1 0.1 12 40
- 0.539744 1 0 ack 40 ------- 1 2.1 0.1 12 40
r 0.540112 1 0 ack 40 ------- 1 2.1 0.1 10 35
+ 0.540112 0 1 tcp 1040 ------- 1 0.1 2.1 21 47
+ 0.540112 0 1 tcp 1040 ------- 1 0.1 2.1 22 48
- 0.540164 0 1 tcp 1040 ------- 1 0.1 2.1 18 42
r 0.5405 0 1 tcp 1040 ------- 1 0.1 2.1 15 38
+ 0.5405 1 2 tcp 1040 ------- 1 0.1 2.1 15 38
- 0.5405 1 2 tcp 1040 ------- 1 0.1 2.1 15 38
r 0.540744 2 1 ack 40 ------- 1 2.1 0.1 13 43
+ 0.540744 1 0 ack 40 ------- 1 2.1 0.1 13 43
- 0.540744 1 0 ack 40 ------- 1 2.1 0.1 13 43
r 0.540944 1 0 ack 40 ------- 1 2.1 0.1 11 36
+ 0.540944 0 1 tcp 1040 ------- 1 0.1 2.1 23 49
+ 0.540944 0 1 tcp 1040 ------- 1 0.1 2.1 24 50
- 0.540996 0 1 tcp 1040 ------- 1 0.1 2.1 19 44
+ 0.54125 0 1 cbr 210 ------- 0 0.0 2.0 11 51
r 0.541332 0 1 tcp 1040 ------- 1 0.1 2.1 16 39
+ 0.541332 1 2 tcp 1040 ------- 1 0.1 2.1 16 39
- 0.541332 1 2 tcp 1040 ------- 1 0.1 2.1 16 39
r 0.541576 2 1 ack 40 ------- 1 2.1 0.1 14 46
+ 0.541576 1 0 ack 40 ------- 1 2.1 0.1 14 46
- 0.541576 1 0 ack 40 ------- 1 2.1 0.1 14 46
r 0.541776 1 0 ack 40 ------- 1 2.1 0.1 12 40
+ 0.541776 0 1 tcp 1040 ------- 1 0.1 2.1 25 52
+ 0.541776 0 1 tcp 1040 ------- 1 0.1 2.1 26 53
- 0.541828 0 1 tcp 1040 ------- 1 0.1 2.1 20 45
r 0.541836 1 2 cbr 210 ------- 0 0.0 2.0 10 37
r 0.542164 0 1 tcp 1040 ------- 1 0.1 2.1 17 41
+ 0.542164 1 2 tcp 1040 ------- 1 0.1 2.1 17 41
- 0.542164 1 2 tcp 1040 ------- 1 0.1 2.1 17 41
- 0.54266 0 1 tcp 1040 ------- 1 0.1 2.1 21 47
r 0.542776 1 0 ack 40 ------- 1 2.1 0.1 13 43
+ 0.542776 0 1 tcp 1040 ------- 1 0.1 2.1 27 54
+ 0.542776 0 1 tcp 1040 ------- 1 0.1 2.1 28 55
r 0.542996 0 1 tcp 1040 ------- 1 0.1 2.1 18 42
+ 0.542996 1 2 tcp 1040 ------- 1 0.1 2.1 18 42
- 0.542996 1 2 tcp 1040 ------- 1 0.1 2.1 18 42
r 0.543332 1 2 tcp 1040 ------- 1 0.1 2.1 15 38
+ 0.543332 2 1 ack 40 ------- 1 2.1 0.1 15 56
- 0.543332 2 1 ack 40 ------- 1 2.1 0.1 15 56
- 0.543492 0 1 tcp 1040 ------- 1 0.1 2.1 22 48
r 0.543608 1 0 ack 40 ------- 1 2.1 0.1 14 46
+ 0.543608 0 1 tcp 1040 ------- 1 0.1 2.1 29 57
+ 0.543608 0 1 tcp 1040 ------- 1 0.1 2.1 30 58
r 0.543828 0 1 tcp 1040 ------- 1 0.1 2.1 19 44
+ 0.543828 1 2 tcp 1040 ------- 1 0.1 2.1 19 44
- 0.543828 1 2 tcp 1040 ------- 1 0.1 2.1 19 44
r 0.544164 1 2 tcp 1040 ------- 1 0.1 2.1 16 39
+ 0.544164 2 1 ack 40 ------- 1 2.1 0.1 16 59
- 0.544164 2 1 ack 40 ------- 1 2.1 0.1 16 59
- 0.544324 0 1 tcp 1040 ------- 1 0.1 2.1 23 49
r 0.54466 0 1 tcp 1040 ------- 1 0.1 2.1 20 45
+ 0.54466 1 2 tcp 1040 ------- 1 0.1 2.1 20 45
- 0.54466 1 2 tcp 1040 ------- 1 0.1 2.1 20 45
r 0.544996 1 2 tcp 1040 ------- 1 0.1 2.1 17 41
+ 0.544996 2 1 ack 40 ------- 1 2.1 0.1 17 60
- 0.544996 2 1 ack 40 ------- 1 2.1 0.1 17 60
+ 0.545 0 1 cbr 210 ------- 0 0.0 2.0 12 61
- 0.545156 0 1 tcp 1040 ------- 1 0.1 2.1 24 50
r 0.545364 2 1 ack 40 ------- 1 2.1 0.1 15 56
+ 0.545364 1 0 ack 40 ------- 1 2.1 0.1 15 56
- 0.545364 1 0 ack 40 ------- 1 2.1 0.1 15 56
r 0.545492 0 1 tcp 1040 ------- 1 0.1 2.1 21 47
+ 0.545492 1 2 tcp 1040 ------- 1 0.1 2.1 21 47
- 0.545492 1 2 tcp 1040 ------- 1 0.1 2.1 21 47
r 0.545828 1 2 tcp 1040 ------- 1 0.1 2.1 18 42
+ 0.545828 2 1 ack 40 ------- 1 2.1 0.1 18 62
- 0.545828 2 1 ack 40 ------- 1 2.1 0.1 18 62
- 0.545988 0 1 cbr 210 ------- 0 0.0 2.0 11 51
- 0.546156 0 1 tcp 1040 ------- 1 0.1 2.1 25 52
r 0.546196 2 1 ack 40 ------- 1 2.1 0.1 16 59
+ 0.546196 1 0 ack 40 ------- 1 2.1 0.1 16 59
- 0.546196 1 0 ack 40 ------- 1 2.1 0.1 16 59
r 0.546324 0 1 tcp 1040 ------- 1 0.1 2.1 22 48
+ 0.546324 1 2 tcp 1040 ------- 1 0.1 2.1 22 48
- 0.546324 1 2 tcp 1040 ------- 1 0.1 2.1 22 48
r 0.54666 1 2 tcp 1040 ------- 1 0.1 2.1 19 44
+ 0.54666 2 1 ack 40 ------- 1 2.1 0.1 19 63
- 0.54666 2 1 ack 40 ------- 1 2.1 0.1 19 63
- 0.546988 0 1 tcp 1040 ------- 1 0.1 2.1 26 53
r 0.547028 2 1 ack 40 ------- 1 2.1 0.1 17 60
+ 0.547028 1 0 ack 40 ------- 1 2.1 0.1 17 60
- 0.547028 1 0 ack 40 ------- 1 2.1 0.1 17 60
r 0.547156 0 1 tcp 1040 ------- 1 0.1 2.1 23 49
+ 0.547156 1 2 tcp 1040 ------- 1 0.1 2.1 23 49
- 0.547156 1 2 tcp 1040 ------- 1 0.1 2.1 23 49
r 0.547396 1 0 ack 40 ------- 1 2.1 0.1 15 56
+ 0.547396 0 1 tcp 1040 ------- 1 0.1 2.1 31 64
+ 0.547396 0 1 tcp 1040 ------- 1 0.1 2.1 32 65
r 0.547492 1 2 tcp 1040 ------- 1 0.1 2.1 20 45
+ 0.547492 2 1 ack 40 ------- 1 2.1 0.1 20 66
- 0.547492 2 1 ack 40 ------- 1 2.1 0.1 20 66
- 0.54782 0 1 tcp 1040 ------- 1 0.1 2.1 27 54
r 0.54786 2 1 ack 40 ------- 1 2.1 0.1 18 62
+ 0.54786 1 0 ack 40 ------- 1 2.1 0.1 18 62
- 0.54786 1 0 ack 40 ------- 1 2.1 0.1 18 62
r 0.547988 0 1 tcp 1040 ------- 1 0.1 2.1 24 50
+ 0.547988 1 2 tcp 1040 ------- 1 0.1 2.1 24 50
- 0.547988 1 2 tcp 1040 ------- 1 0.1 2.1 24 50
r 0.548156 0 1 cbr 210 ------- 0 0.0 2.0 11 51
+ 0.548156 1 2 cbr 210 ------- 0 0.0 2.0 11 51
r 0.548228 1 0 ack 40 ------- 1 2.1 0.1 16 59
+ 0.548228 0 1 tcp 1040 ------- 1 0.1 2.1 33 67
+ 0.548228 0 1 tcp 1040 ------- 1 0.1 2.1 34 68
r 0.548324 1 2 tcp 1040 ------- 1 0.1 2.1 21 47
+ 0.548324 2 1 ack 40 ------- 1 2.1 0.1 21 69
- 0.548324 2 1 ack 40 ------- 1 2.1 0.1 21 69
- 0.548652 0 1 tcp 1040 ------- 1 0.1 2.1 28 55
r 0.548692 2 1 ack 40 ------- 1 2.1 0.1 19 63
+ 0.548692 1 0 ack 40 ------- 1 2.1 0.1 19 63
- 0.548692 1 0 ack 40 ------- 1 2.1 0.1 19 63
+ 0.54875 0 1 cbr 210 ------- 0 0.0 2.0 13 70
- 0.54882 1 2 cbr 210 ------- 0 0.0 2.0 11 51
r 0.548988 0 1 tcp 1040 ------- 1 0.1 2.1 25 52
+ 0.548988 1 2 tcp 1040 ------- 1 0.1 2.1 25 52
- 0.548988 1 2 tcp 1040 ------- 1 0.1 2.1 25 52
r 0.54906 1 0 ack 40 ------- 1 2.1 0.1 17 60
+ 0.54906 0 1 tcp 1040 ------- 1 0.1 2.1 35 71
+ 0.54906 0 1 tcp 1040 ------- 1 0.1 2.1 36 72
r 0.549156 1 2 tcp 1040 ------- 1 0.1 2.1 22 48
+ 0.549156 2 1 ack 40 ------- 1 2.1 0.1 22 73
- 0.549156 2 1 ack 40 ------- 1 2.1 0.1 22 73
- 0.549484 0 1 tcp 1040 ------- 1 0.1 2.1 29 57
r 0.549524 2 1 ack 40 ------- 1 2.1 0.1 20 66
+ 0.549524 1 0 ack 40 ------- 1 2.1 0.1 20 66
- 0.549524 1 0 ack 40 ------- 1 2.1 0.1 20 66
r 0.54982 0 1 tcp 1040 ------- 1 0.1 2.1 26 53
+ 0.54982 1 2 tcp 1040 ------- 1 0.1 2.1 26 53
- 0.54982 1 2 tcp 1040 ------- 1 0.1 2.1 26 53
r 0.549892 1 0 ack 40 ------- 1 2.1 0.1 18 62
+ 0.549892 0 1 tcp 1040 ------- 1 0.1 2.1 37 74
+ 0.549892 0 1 tcp 1040 ------- 1 0.1 2.1 38 75
r 0.549988 1 2 tcp 1040 ------- 1 0.1 2.1 23 49
+ 0.549988 2 1 ack 40 ------- 1 2.1 0.1 23 76
- 0.549988 2 1 ack 40 ------- 1 2.1 0.1 23 76
- 0.550316 0 1 tcp 1040 ------- 1 0.1 2.1 30 58
r 0.550356 2 1 ack 40 ------- 1 2.1 0.1 21 69
+ 0.550356 1 0 ack 40 ------- 1 2.1 0.1 21 69
- 0.550356 1 0 ack 40 ------- 1 2.1 0.1 21 69
r 0.550652 0 1 tcp 1040 ------- 1 0.1 2.1 27 54
+ 0.550652 1 2 tcp 1040 ------- 1 0.1 2.1 27 54
- 0.550652 1 2 tcp 1040 ------- 1 0.1 2.1 27 54
r 0.550724 1 0 ack 40 ------- 1 2.1 0.1 19 63
+ 0.550724 0 1 tcp 1040 ------- 1 0.1 2.1 39 77
r 0.55082 1 2 tcp 1040 ------- 1 0.1 2.1 24 50
+ 0.55082 2 1 ack 40 ------- 1 2.1 0.1 24 78
- 0.55082 2 1 ack 40 ------- 1 2.1 0.1 24 78
r 0.550988 1 2 cbr 210 ------- 0 0.0 2.0 11 51
- 0.551148 0 1 cbr 210 ------- 0 0.0 2.0 12 61
r 0.551188 2 1 ack 40 ------- 1 2.1 0.1 22 73
+ 0.551188 1 0 ack 40 ------- 1 2.1 0.1 22 73
- 0.551188 1 0 ack 40 ------- 1 2.1 0.1 22 73
- 0.551316 0 1 tcp 1040 ------- 1 0.1 2.1 31 64
r 0.551484 0 1 tcp 1040 ------- 1 0.1 2.1 28 55
+ 0.551484 1 2 tcp 1040 ------- 1 0.1 2.1 28 55
- 0.551484 1 2 tcp 1040 ------- 1 0.1 2.1 28 55
r 0.551556 1 0 ack 40 ------- 1 2.1 0.1 20 66
+ 0.551556 0 1 tcp 1040 ------- 1 0.1 2.1 40 79
r 0.55182 1 2 tcp 1040 ------- 1 0.1 2.1 25 52
+ 0.55182 2 1 ack 40 ------- 1 2.1 0.1 25 80
- 0.55182 2 1 ack 40 ------- 1 2.1 0.1 25 80
r 0.55202 2 1 ack 40 ------- 1 2.1 0.1 23 76
+ 0.55202 1 0 ack 40 ------- 1 2.1 0.1 23 76
- 0.55202 1 0 ack 40 ------- 1 2.1 0.1 23 76
- 0.552148 0 1 tcp 1040 ------- 1 0.1 2.1 32 65
r 0.552316 0 1 tcp 1040 ------- 1 0.1 2.1 29 57
+ 0.552316 1 2 tcp 1040 ------- 1 0.1 2.1 29 57
- 0.552316 1 2 tcp 1040 ------- 1 0.1 2.1 29 57
r 0.552388 1 0 ack 40 ------- 1 2.1 0.1 21 69
+ 0.552388 0 1 tcp 1040 ------- 1 0.1 2.1 41 81
+ 0.5525 0 1 cbr 210 ------- 0 0.0 2.0 14 82
r 0.552652 1 2 tcp 1040 ------- 1 0.1 2.1 26 53
+ 0.552652 2 1 ack 40 ------- 1 2.1 0.1 26 83
- 0.552652 2 1 ack 40 ------- 1 2.1 0.1 26 83
r 0.552852 2 1 ack 40 ------- 1 2.1 0.1 24 78
+ 0.552852 1 0 ack 40 ------- 1 2.1 0.1 24 78
- 0.552852 1 0 ack 40 ------- 1 2.1 0.1 24 78
- 0.55298 0 1 tcp 1040 ------- 1 0.1 2.1 33 67
r 0.553148 0 1 tcp 1040 ------- 1 0.1 2.1 30 58
+ 0.553148 1 2 tcp 1040 ------- 1 0.1 2.1 30 58
- 0.553148 1 2 tcp 1040 ------- 1 0.1 2.1 30 58
r 0.55322 1 0 ack 40 ------- 1 2.1 0.1 22 73
+ 0.55322 0 1 tcp 1040 ------- 1 0.1 2.1 42 84
r 0.553316 0 1 cbr 210 ------- 0 0.0 2.0 12 61
+ 0.553316 1 2 cbr 210 ------- 0 0.0 2.0 12 61
r 0.553484 1 2 tcp 1040 ------- 1 0.1 2.1 27 54
+ 0.553484 2 1 ack 40 ------- 1 2.1 0.1 27 85
- 0.553484 2 1 ack 40 ------- 1 2.1 0.1 27 85
- 0.553812 0 1 tcp 1040 ------- 1 0.1 2.1 34 68
r 0.553852 2 1 ack 40 ------- 1 2.1 0.1 25 80
+ 0.553852 1 0 ack 40 ------- 1 2.1 0.1 25 80
- 0.553852 1 0 ack 40 ------- 1 2.1 0.1 25 80
- 0.55398 1 2 cbr 210 ------- 0 0.0 2.0 12 61
r 0.554052 1 0 ack 40 ------- 1 2.1 0.1 23 76
+ 0.554052 0 1 tcp 1040 ------- 1 0.1 2.1 43 86
r 0.554148 0 1 tcp 1040 ------- 1 0.1 2.1 31 64
+ 0.554148 1 2 tcp 1040 ------- 1 0.1 2.1 31 64
- 0.554148 1 2 tcp 1040 ------- 1 0.1 2.1 31 64
r 0.554316 1 2 tcp 1040 ------- 1 0.1 2.1 28 55
+ 0.554316 2 1 ack 40 ------- 1 2.1 0.1 28 87
- 0.554316 2 1 ack 40 ------- 1 2.1 0.1 28 87
- 0.554644 0 1 cbr 210 ------- 0 0.0 2.0 13 70
r 0.554684 2 1 ack 40 ------- 1 2.1 0.1 26 83
+ 0.554684 1 0 ack 40 ------- 1 2.1 0.1 26 83
- 0.554684 1 0 ack 40 ------- 1 2.1 0.1 26 83
- 0.554812 0 1 tcp 1040 ------- 1 0.1 2.1 35 71
r 0.554884 1 0 ack 40 ------- 1 2.1 0.1 24 78
+ 0.554884 0 1 tcp 1040 ------- 1 0.1 2.1 44 88
r 0.55498 0 1 tcp 1040 ------- 1 0.1 2.1 32 65
+ 0.55498 1 2 tcp 1040 ------- 1 0.1 2.1 32 65
- 0.55498 1 2 tcp 1040 ------- 1 0.1 2.1 32 65
r 0.555148 1 2 tcp 1040 ------- 1 0.1 2.1 29 57
+ 0.555148 2 1 ack 40 ------- 1 2.1 0.1 29 89
- 0.555148 2 1 ack 40 ------- 1 2.1 0.1 29 89
r 0.555516 2 1 ack 40 ------- 1 2.1 0.1 27 85
+ 0.555516 1 0 ack 40 ------- 1 2.1 0.1 27 85
- 0.555516 1 0 ack 40 ------- 1 2.1 0.1 27 85
- 0.555644 0 1 tcp 1040 ------- 1 0.1 2.1 36 72
r 0.555812 0 1 tcp 1040 ------- 1 0.1 2.1 33 67
+ 0.555812 1 2 tcp 1040 ------- 1 0.1 2.1 33 67
- 0.555812 1 2 tcp 1040 ------- 1 0.1 2.1 33 67
r 0.555884 1 0 ack 40 ------- 1 2.1 0.1 25 80
+ 0.555884 0 1 tcp 1040 ------- 1 0.1 2.1 45 90
r 0.55598 1 2 tcp 1040 ------- 1 0.1 2.1 30 58
+ 0.55598 2 1 ack 40 ------- 1 2.1 0.1 30 91
- 0.55598 2 1 ack 40 ------- 1 2.1 0.1 30 91
r 0.556148 1 2 cbr 210 ------- 0 0.0 2.0 12 61
+ 0.55625 0 1 cbr 210 ------- 0 0.0 2.0 15 92
r 0.556348 2 1 ack 40 ------- 1 2.1 0.1 28 87
+ 0.556348 1 0 ack 40 ------- 1 2.1 0.1 28 87
- 0.556348 1 0 ack 40 ------- 1 2.1 0.1 28 87
- 0.556476 0 1 tcp 1040 ------- 1 0.1 2.1 37 74
r 0.556644 0 1 tcp 1040 ------- 1 0.1 2.1 34 68
+ 0.556644 1 2 tcp 1040 ------- 1 0.1 2.1 34 68
- 0.556644 1 2 tcp 1040 ------- 1 0.1 2.1 34 68
r 0.556716 1 0 ack 40 ------- 1 2.1 0.1 26 83
+ 0.556716 0 1 tcp 1040 ------- 1 0.1 2.1 46 93
r 0.556812 0 1 cbr 210 ------- 0 0.0 2.0 13 70
+ 0.556812 1 2 cbr 210 ------- 0 0.0 2.0 13 70
r 0.55698 1 2 tcp 1040 ------- 1 0.1 2.1 31 64
+ 0.55698 2 1 ack 40 ------- 1 2.1 0.1 31 94
- 0.55698 2 1 ack 40 ------- 1 2.1 0.1 31 94
r 0.55718 2 1 ack 40 ------- 1 2.1 0.1 29 89
+ 0.55718 1 0 ack 40 ------- 1 2.1 0.1 29 89
- 0.55718 1 0 ack 40 ------- 1 2.1 0.1 29 89
- 0.557308 0 1 tcp 1040 ------- 1 0.1 2.1 38 75
- 0.557476 1 2 cbr 210 ------- 0 0.0 2.0 13 70
r 0.557548 1 0 ack 40 ------- 1 2.1 0.1 27 85
+ 0.557548 0 1 tcp 1040 ------- 1 0.1 2.1 47 95
r 0.557644 0 1 tcp 1040 ------- 1 0.1 2.1 35 71
+ 0.557644 1 2 tcp 1040 ------- 1 0.1 2.1 35 71
- 0.557644 1 2 tcp 1040 ------- 1 0.1 2.1 35 71
r 0.557812 1 2 tcp 1040 ------- 1 0.1 2.1 32 65
+ 0.557812 2 1 ack 40 ------- 1 2.1 0.1 32 96
- 0.557812 2 1 ack 40 ------- 1 2.1 0.1 32 96
r 0.558012 2 1 ack 40 ------- 1 2.1 0.1 30 91
+ 0.558012 1 0 ack 40 ------- 1 2.1 0.1 30 91
- 0.558012 1 0 ack 40 ------- 1 2.1 0.1 30 91
- 0.55814 0 1 tcp 1040 ------- 1 0.1 2.1 39 77
r 0.55838 1 0 ack 40 ------- 1 2.1 0.1 28 87
+ 0.55838 0 1 tcp 1040 ------- 1 0.1 2.1 48 97
r 0.558476 0 1 tcp 1040 ------- 1 0.1 2.1 36 72
+ 0.558476 1 2 tcp 1040 ------- 1 0.1 2.1 36 72
- 0.558476 1 2 tcp 1040 ------- 1 0.1 2.1 36 72
r 0.558644 1 2 tcp 1040 ------- 1 0.1 2.1 33 67
+ 0.558644 2 1 ack 40 ------- 1 2.1 0.1 33 98
- 0.558644 2 1 ack 40 ------- 1 2.1 0.1 33 98
- 0.558972 0 1 tcp 1040 ------- 1 0.1 2.1 40 79
r 0.559012 2 1 ack 40 ------- 1 2.1 0.1 31 94
+ 0.559012 1 0 ack 40 ------- 1 2.1 0.1 31 94
- 0.559012 1 0 ack 40 ------- 1 2.1 0.1 31 94
r 0.559212 1 0 ack 40 ------- 1 2.1 0.1 29 89
+ 0.559212 0 1 tcp 1040 ------- 1 0.1 2.1 49 99
r 0.559308 0 1 tcp 1040 ------- 1 0.1 2.1 37 74
+ 0.559308 1 2 tcp 1040 ------- 1 0.1 2.1 37 74
- 0.559308 1 2 tcp 1040 ------- 1 0.1 2.1 37 74
r 0.559476 1 2 tcp 1040 ------- 1 0.1 2.1 34 68
+ 0.559476 2 1 ack 40 ------- 1 2.1 0.1 34 100
- 0.559476 2 1 ack 40 ------- 1 2.1 0.1 34 100
r 0.559644 1 2 cbr 210 ------- 0 0.0 2.0 13 70
- 0.559804 0 1 tcp 1040 ------- 1 0.1 2.1 41 81
r 0.559844 2 1 ack 40 ------- 1 2.1 0.1 32 96
+ 0.559844 1 0 ack 40 ------- 1 2.1 0.1 32 96
- 0.559844 1 0 ack 40 ------- 1 2.1 0.1 32 96
+ 0.56 0 1 cbr 210 ------- 0 0.0 2.0 16 101
r 0.560044 1 0 ack 40 ------- 1 2.1 0.1 30 91
+ 0.560044 0 1 tcp 1040 ------- 1 0.1 2.1 50 102
r 0.56014 0 1 tcp 1040 ------- 1 0.1 2.1 38 75
+ 0.56014 1 2 tcp 1040 ------- 1 0.1 2.1 38 75
- 0.56014 1 2 tcp 1040 ------- 1 0.1 2.1 38 75
r 0.560476 1 2 tcp 1040 ------- 1 0.1 2.1 35 71
+ 0.560476 2 1 ack 40 ------- 1 2.1 0.1 35 103
- 0.560476 2 1 ack 40 ------- 1 2.1 0.1 35 103
- 0.560636 0 1 cbr 210 ------- 0 0.0 2.0 14 82
r 0.560676 2 1 ack 40 ------- 1 2.1 0.1 33 98
+ 0.560676 1 0 ack 40 ------- 1 2.1 0.1 33 98
- 0.560676 1 0 ack 40 ------- 1 2.1 0.1 33 98
- 0.560804 0 1 tcp 1040 ------- 1 0.1 2.1 42 84
r 0.560972 0 1 tcp 1040 ------- 1 0.1 2.1 39 77
+ 0.560972 1 2 tcp 1040 ------- 1 0.1 2.1 39 77
- 0.560972 1 2 tcp 1040 ------- 1 0.1 2.1 39 77
r 0.561044 1 0 ack 40 ------- 1 2.1 0.1 31 94
+ 0.561044 0 1 tcp 1040 ------- 1 0.1 2.1 51 104
r 0.561308 1 2 tcp 1040 ------- 1 0.1 2.1 36 72
+ 0.561308 2 1 ack 40 ------- 1 2.1 0.1 36 105
- 0.561308 2 1 ack 40 ------- 1 2.1 0.1 36 105
r 0.561508 2 1 ack 40 ------- 1 2.1 0.1 34 100
+ 0.561508 1 0 ack 40 ------- 1 2.1 0.1 34 100
- 0.561508 1 0 ack 40 ------- 1 2.1 0.1 34 100
- 0.561636 0 1 tcp 1040 ------- 1 0.1 2.1 43 86
r 0.561804 0 1 tcp 1040 ------- 1 0.1 2.1 40 79
+ 0.561804 1 2 tcp 1040 ------- 1 0.1 2.1 40 79
- 0.561804 1 2 tcp 1040 ------- 1 0.1 2.1 40 79
r 0.561876 1 0 ack 40 ------- 1 2.1 0.1 32 96
+ 0.561876 0 1 tcp 1040 ------- 1 0.1 2.1 52 106
r 0.56214 1 2 tcp 1040 ------- 1 0.1 2.1 37 74
+ 0.56214 2 1 ack 40 ------- 1 2.1 0.1 37 107
- 0.56214 2 1 ack 40 ------- 1 2.1 0.1 37 107
- 0.562468 0 1 tcp 1040 ------- 1 0.1 2.1 44 88
r 0.562508 2 1 ack 40 ------- 1 2.1 0.1 35 103
+ 0.562508 1 0 ack 40 ------- 1 2.1 0.1 35 103
- 0.562508 1 0 ack 40 ------- 1 2.1 0.1 35 103
r 0.562636 0 1 tcp 1040 ------- 1 0.1 2.1 41 81
+ 0.562636 1 2 tcp 1040 ------- 1 0.1 2.1 41 81
- 0.562636 1 2 tcp 1040 ------- 1 0.1 2.1 41 81
r 0.562708 1 0 ack 40 ------- 1 2.1 0.1 33 98
+ 0.562708 0 1 tcp 1040 ------- 1 0.1 2.1 53 108
r 0.562804 0 1 cbr 210 ------- 0 0.0 2.0 14 82
+ 0.562804 1 2 cbr 210 ------- 0 0.0 2.0 14 82
r 0.562972 1 2 tcp 1040 ------- 1 0.1 2.1 38 75
+ 0.562972 2 1 ack 40 ------- 1 2.1 0.1 38 109
- 0.562972 2 1 ack 40 ------- 1 2.1 0.1 38 109
- 0.5633 0 1 tcp 1040 ------- 1 0.1 2.1 45 90
r 0.56334 2 1 ack 40 ------- 1 2.1 0.1 36 105
+ 0.56334 1 0 ack 40 ------- 1 2.1 0.1 36 105
- 0.56334 1 0 ack 40 ------- 1 2.1 0.1 36 105
- 0.563468 1 2 cbr 210 ------- 0 0.0 2.0 14 82
r 0.56354 1 0 ack 40 ------- 1 2.1 0.1 34 100
+ 0.56354 0 1 tcp 1040 ------- 1 0.1 2.1 54 110
r 0.563636 0 1 tcp 1040 ------- 1 0.1 2.1 42 84
+ 0.563636 1 2 tcp 1040 ------- 1 0.1 2.1 42 84
- 0.563636 1 2 tcp 1040 ------- 1 0.1 2.1 42 84
+ 0.56375 0 1 cbr 210 ------- 0 0.0 2.0 17 111
r 0.563804 1 2 tcp 1040 ------- 1 0.1 2.1 39 77
+ 0.563804 2 1 ack 40 ------- 1 2.1 0.1 39 112
- 0.563804 2 1 ack 40 ------- 1 2.1 0.1 39 112
- 0.564132 0 1 cbr 210 ------- 0 0.0 2.0 15 92
r 0.564172 2 1 ack 40 ------- 1 2.1 0.1 37 107
+ 0.564172 1 0 ack 40 ------- 1 2.1 0.1 37 107
- 0.564172 1 0 ack 40 ------- 1 2.1 0.1 37 107
- 0.5643 0 1 tcp 1040 ------- 1 0.1 2.1 46 93
r 0.564468 0 1 tcp 1040 ------- 1 0.1 2.1 43 86
+ 0.564468 1 2 tcp 1040 ------- 1 0.1 2.1 43 86
- 0.564468 1 2 tcp 1040 ------- 1 0.1 2.1 43 86
r 0.56454 1 0 ack 40 ------- 1 2.1 0.1 35 103
+ 0.56454 0 1 tcp 1040 ------- 1 0.1 2.1 55 113
r 0.564636 1 2 tcp 1040 ------- 1 0.1 2.1 40 79
+ 0.564636 2 1 ack 40 ------- 1 2.1 0.1 40 114
- 0.564636 2 1 ack 40 ------- 1 2.1 0.1 40 114
r 0.565004 2 1 ack 40 ------- 1 2.1 0.1 38 109
+ 0.565004 1 0 ack 40 ------- 1 2.1 0.1 38 109
- 0.565004 1 0 ack 40 ------- 1 2.1 0.1 38 109
- 0.565132 0 1 tcp 1040 ------- 1 0.1 2.1 47 95
r 0.5653 0 1 tcp 1040 ------- 1 0.1 2.1 44 88
+ 0.5653 1 2 tcp 1040 ------- 1 0.1 2.1 44 88
- 0.5653 1 2 tcp 1040 ------- 1 0.1 2.1 44 88
r 0.565372 1 0 ack 40 ------- 1 2.1 0.1 36 105
+ 0.565372 0 1 tcp 1040 ------- 1 0.1 2.1 56 115
r 0.565468 1 2 tcp 1040 ------- 1 0.1 2.1 41 81
+ 0.565468 2 1 ack 40 ------- 1 2.1 0.1 41 116
- 0.565468 2 1 ack 40 ------- 1 2.1 0.1 41 116
r 0.565636 1 2 cbr 210 ------- 0 0.0 2.0 14 82
r 0.565836 2 1 ack 40 ------- 1 2.1 0.1 39 112
+ 0.565836 1 0 ack 40 ------- 1 2.1 0.1 39 112
- 0.565836 1 0 ack 40 ------- 1 2.1 0.1 39 112
- 0.565964 0 1 tcp 1040 ------- 1 0.1 2.1 48 97
r 0.566132 0 1 tcp 1040 ------- 1 0.1 2.1 45 90
+ 0.566132 1 2 tcp 1040 ------- 1 0.1 2.1 45 90
- 0.566132 1 2 tcp 1040 ------- 1 0.1 2.1 45 90
r 0.566204 1 0 ack 40 ------- 1 2.1 0.1 37 107
+ 0.566204 0 1 tcp 1040 ------- 1 0.1 2.1 57 117
r 0.5663 0 1 cbr 210 ------- 0 0.0 2.0 15 92
+ 0.5663 1 2 cbr 210 ------- 0 0.0 2.0 15 92
r 0.566468 1 2 tcp 1040 ------- 1 0.1 2.1 42 84
+ 0.566468 2 1 ack 40 ------- 1 2.1 0.1 42 118
- 0.566468 2 1 ack 40 ------- 1 2.1 0.1 42 118
r 0.566668 2 1 ack 40 ------- 1 2.1 0.1 40 114
+ 0.566668 1 0 ack 40 ------- 1 2.1 0.1 40 114
- 0.566668 1 0 ack 40 ------- 1 2.1 0.1 40 114
- 0.566796 0 1 tcp 1040 ------- 1 0.1 2.1 49 99
- 0.566964 1 2 cbr 210 ------- 0 0.0 2.0 15 92
r 0.567036 1 0 ack 40 ------- 1 2.1 0.1 38 109
+ 0.567036 0 1 tcp 1040 ------- 1 0.1 2.1 58 119
r 0.567132 0 1 tcp 1040 ------- 1 0.1 2.1 46 93
+ 0.567132 1 2 tcp 1040 ------- 1 0.1 2.1 46 93
- 0.567132 1 2 tcp 1040 ------- 1 0.1 2.1 46 93
r 0.5673 1 2 tcp 1040 ------- 1 0.1 2.1 43 86
+ 0.5673 2 1 ack 40 ------- 1 2.1 0.1 43 120
- 0.5673 2 1 ack 40 ------- 1 2.1 0.1 43 120
+ 0.5675 0 1 cbr 210 ------- 0 0.0 2.0 18 121
r 0.5675 2 1 ack 40 ------- 1 2.1 0.1 41 116
+ 0.5675 1 0 ack 40 ------- 1 2.1 0.1 41 116
- 0.5675 1 0 ack 40 ------- 1 2.1 0.1 41 116