V -t * -v 1.0a5 -a 0
A -t * -n 1 -p 0 -o 0x7fffffff -c 30 -a 1
A -t * -h 1 -m 1073741823 -s 0
c -t * -i 1 -n blue
c -t * -i 2 -n red
n -t * -a 0 -s 0 -S UP -v circle -c black -i black
n -t * -a 1 -s 1 -S UP -v circle -c black -i black
n -t * -a 2 -s 2 -S UP -v circle -c black -i black
l -t * -s 2 -d 1 -S UP -r 10000000 -D 0.002 -c black
l -t * -s 1 -d 0 -S UP -r 10000000 -D 0.002 -c black
+ -t 0.5 -s 0 -d 1 -p cbr -e 210 -c 0 -i 0 -a 0 -x {0.0 2.0 0 ------- null}
- -t 0.5 -s 0 -d 1 -p cbr -e 210 -c 0 -i 0 -a 0 -x {0.0 2.0 0 ------- null}
h -t 0.5 -s 0 -d 1 -p cbr -e 210 -c 0 -i 0 -a 0 -x {0.0 2.0 -1 ------- null}
+ -t 0.5 -s 0 -d 1 -p tcp -e 40 -c 1 -i 1 -a 1 -x {0.1 2.1 0 ------- null}
- -t 0.500168 -s 0 -d 1 -p tcp -e 40 -c 1 -i 1 -a 1 -x {0.1 2.1 0 ------- null}
h -t 0.500168 -s 0 -d 1 -p tcp -e 40 -c 1 -i 1 -a 1 -x {0.1 2.1 -1 ------- null}
r -t 0.502168 -s 0 -d 1 -p cbr -e 210 -c 0 -i 0 -a 0 -x {0.0 2.0 0 ------- null}
+ -t 0.502168 -s 1 -d 2 -p cbr -e 210 -c 0 -i 0 -a 0 -x {0.0 2.0 0 ------- null}
- -t 0.502168 -s 1 -d 2 -p cbr -e 210 -c 0 -i 0 -a 0 -x {0.0 2.0 0 ------- null}
h -t 0.502168 -s 1 -d 2 -p cbr -e 210 -c 0 -i 0 -a 0 -x {0.0 2.0 -1 ------- null}
r -t 0.5022 -s 0 -d 1 -p tcp -e 40 -c 1 -i 1 -a 1 -x {0.1 2.1 0 ------- null}
+ -t 0.5022 -s 1 -d 2 -p tcp -e 40 -c 1 -i 1 -a 1 -x {0.1 2.1 0 ------- null}
- -t 0.502336 -s 1 -d 2 -p tcp -e 40 -c 1 -i 1 -a 1 -x {0.1 2.1 0 ------- null}
h -t 0.502336 -s 1 -d 2 -p tcp -e 40 -c 1 -i 1 -a 1 -x {0.1 2.1 -1 ------- null}
+ -t 0.50375 -s 0 -d 1 -p cbr -e 210 -c 0 -i 2 -a 0 -x {0.0 2.0 1 ------- null}
- -t 0.50375 -s 0 -d 1 -p cbr -e 210 -c 0 -i 2 -a 0 -x {0.0 2.0 1 ------- null}
h -t 0.50375 -s 0 -d 1 -p cbr -e 210 -c 0 -i 2 -a 0 -x {0.0 2.0 -1 ------- null}
r -t 0.504336 -s 1 -d 2 -p cbr -e 210 -c 0 -i 0 -a 0 -x {0.0 2.0 0 ------- null}
r -t 0.504368 -s 1 -d 2 -p tcp -e 40 -c 1 -i 1 -a 1 -x {0.1 2.1 0 ------- null}
+ -t 0.504368 -s 2 -d 1 -p ack -e 40 -c 1 -i 3 -a 1 -x {2.1 0.1 0 ------- null}
- -t 0.504368 -s 2 -d 1 -p ack -e 40 -c 1 -i 3 -a 1 -x {2.1 0.1 0 ------- null}
h -t 0.504368 -s 2 -d 1 -p ack -e 40 -c 1 -i 3 -a 1 -x {2.1 0.1 -1 ------- null}
r -t 0.505918 -s 0 -d 1 -p cbr -e 210 -c 0 -i 2 -a 0 -x {0.0 2.0 1 ------- null}
+ -t 0.505918 -s 1 -d 2 -p cbr -e 210 -c 0 -i 2 -a 0 -x {0.0 2.0 1 ------- null}
- -t 0.505918 -s 1 -d 2 -p cbr -e 210 -c 0 -i 2 -a 0 -x {0.0 2.0 1 ------- null}
h -t 0.505918 -s 1 -d 2 -p cbr -e 210 -c 0 -i 2 -a 0 -x {0.0 2.0 -1 ------- null}
r -t 0.5064 -s 2 -d 1 -p ack -e 40 -c 1 -i 3 -a 1 -x {2.1 0.1 0 ------- null}
+ -t 0.5064 -s 1 -d 0 -p ack -e 40 -c 1 -i 3 -a 1 -x {2.1 0.1 0 ------- null}
- -t 0.5064 -s 1 -d 0 -p ack -e 40 -c 1 -i 3 -a 1 -x {2.1 0.1 0 ------- null}
h -t 0.5064 -s 1 -d 0 -p ack -e 40 -c 1 -i 3 -a 1 -x {2.1 0.1 -1 ------- null}
+ -t 0.5075 -s 0 -d 1 -p cbr -e 210 -c 0 -i 4 -a 0 -x {0.0 2.0 2 ------- null}
- -t 0.5075 -s 0 -d 1 -p cbr -e 210 -c 0 -i 4 -a 0 -x {0.0 2.0 2 ------- null}
h -t 0.5075 -s 0 -d 1 -p cbr -e 210 -c 0 -i 4 -a 0 -x {0.0 2.0 -1 ------- null}
r -t 0.508086 -s 1 -d 2 -p cbr -e 210 -c 0 -i 2 -a 0 -x {0.0 2.0 1 ------- null}
r -t 0.508432 -s 1 -d 0 -p ack -e 40 -c 1 -i 3 -a 1 -x {2.1 0.1 0 ------- null}
+ -t 0.508432 -s 0 -d 1 -p tcp -e 1040 -c 1 -i 5 -a 1 -x {0.1 2.1 1 ------- null}
- -t 0.508432 -s 0 -d 1 -p tcp -e 1040 -c 1 -i 5 -a 1 -x {0.1 2.1 1 ------- null}
h -t 0.508432 -s 0 -d 1 -p tcp -e 1040 -c 1 -i 5 -a 1 -x {0.1 2.1 -1 ------- null}
+ -t 0.508432 -s 0 -d 1 -p tcp -e 1040 -c 1 -i 6 -a 1 -x {0.1 2.1 2 ------- null}
- -t 0.509264 -s 0 -d 1 -p tcp -e 1040 -c 1 -i 6 -a 1 -x {0.1 2.1 2 ------- null}
h -t 0.509264 -s 0 -d 1 -p tcp -e 1040 -c 1 -i 6 -a 1 -x {0.1 2.1 -1 ------- null}
r -t 0.509668 -s 0 -d 1 -p cbr -e 210 -c 0 -i 4 -a 0 -x {0.0 2.0 2 ------- null}
+ -t 0.509668 -s 1 -d 2 -p cbr -e 210 -c 0 -i 4 -a 0 -x {0.0 2.0 2 ------- null}
- -t 0.509668 -s 1 -d 2 -p cbr -e 210 -c 0 -i 4 -a 0 -x {0.0 2.0 2 ------- null}
h -t 0.509668 -s 1 -d 2 -p cbr -e 210 -c 0 -i 4 -a 0 -x {0.0 2.0 -1 ------- null}
+ -t 0.51125 -s 0 -d 1 -p cbr -e 210 -c 0 -i 7 -a 0 -x {0.0 2.0 3 ------- null}
- -t 0.51125 -s 0 -d 1 -p cbr -e 210 -c 0 -i 7 -a 0 -x {0.0 2.0 3 ------- null}
h -t 0.51125 -s 0 -d 1 -p cbr -e 210 -c 0 -i 7 -a 0 -x {0.0 2.0 -1 ------- null}
r -t 0.511264 -s 0 -d 1 -p tcp -e 1040 -c 1 -i 5 -a 1 -x {0.1 2.1 1 ------- null}
+ -t 0.511264 -s 1 -d 2 -p tcp -e 1040 -c 1 -i 5 -a 1 -x {0.1 2.1 1 ------- null}
- -t 0.511264 -s 1 -d 2 -p tcp -e 1040 -c 1 -i 5 -a 1 -x {0.1 2.1 1 ------- null}
h -t 0.511264 -s 1 -d 2 -p tcp -e 1040 -c 1 -i 5 -a 1 -x {0.1 2.1 -1 ------- null}
r -t 0.511836 -s 1 -d 2 -p cbr -e 210 -c 0 -i 4 -a 0 -x {0.0 2.0 2 ------- null}
r -t 0.512096 -s 0 -d 1 -p tcp -e 1040 -c 1 -i 6 -a 1 -x {0.1 2.1 2 ------- null}
+ -t 0.512096 -s 1 -d 2 -p tcp -e 1040 -c 1 -i 6 -a 1 -x {0.1 2.1 2 ------- null}
- -t 0.512096 -s 1 -d 2 -p tcp -e 1040 -c 1 -i 6 -a 1 -x {0.1 2.1 2 ------- null}
h -t 0.512096 -s 1 -d 2 -p tcp -e 1040 -c 1 -i 6 -a 1 -x {0.1 2.1 -1 ------- null}
r -t 0.513418 -s 0 -d 1 -p cbr -e 210 -c 0 -i 7 -a 0 -x {0.0 2.0 3 ------- null}
+ -t 0.513418 -s 1 -d 2 -p cbr -e 210 -c 0 -i 7 -a 0 -x {0.0 2.0 3 ------- null}
- -t 0.513418 -s 1 -d 2 -p cbr -e 210 -c 0 -i 7 -a 0 -x {0.0 2.0 3 ------- null}
h -t 0.513418 -s 1 -d 2 -p cbr -e 210 -c 0 -i 7 -a 0 -x {0.0 2.0 -1 ------- null}
r -t 0.514096 -s 1 -d 2 -p tcp -e 1040 -c 1 -i 5 -a 1 -x {0.1 2.1 1 ------- null}
+ -t 0.514096 -s 2 -d 1 -p ack -e 40 -c 1 -i 8 -a 1 -x {2.1 0.1 1 ------- null}
- -t 0.514096 -s 2 -d 1 -p ack -e 40 -c 1 -i 8 -a 1 -x {2.1 0.1 1 ------- null}
h -t 0.514096 -s 2 -d 1 -p ack -e 40 -c 1 -i 8 -a 1 -x {2.1 0.1 -1 ------- null}
r -t 0.514928 -s 1 -d 2 -p tcp -e 1040 -c 1 -i 6 -a 1 -x {0.1 2.1 2 ------- null}
+ -t 0.514928 -s 2 -d 1 -p ack -e 40 -c 1 -i 9 -a 1 -x {2.1 0.1 2 ------- null}
- -t 0.514928 -s 2 -d 1 -p ack -e 40 -c 1 -i 9 -a 1 -x {2.1 0.1 2 ------- null}
h -t 0.514928 -s 2 -d 1 -p ack -e 40 -c 1 -i 9 -a 1 -x {2.1 0.1 -1 ------- null}
+ -t 0.515 -s 0 -d 1 -p cbr -e 210 -c 0 -i 10 -a 0 -x {0.0 2.0 4 ------- null}
- -t 0.515 -s 0 -d 1 -p cbr -e 210 -c 0 -i 10 -a 0 -x {0.0 2.0 4 ------- null}
h -t 0.515 -s 0 -d 1 -p cbr -e 210 -c 0 -i 10 -a 0 -x {0.0 2.0 -1 ------- null}
r -t 0.515586 -s 1 -d 2 -p cbr -e 210 -c 0 -i 7 -a 0 -x {0.0 2.0 3 ------- null}
r -t 0.516128 -s 2 -d 1 -p ack -e 40 -c 1 -i 8 -a 1 -x {2.1 0.1 1 ------- null}
+ -t 0.516128 -s 1 -d 0 -p ack -e 40 -c 1 -i 8 -a 1 -x {2.1 0.1 1 ------- null}
- -t 0.516128 -s 1 -d 0 -p ack -e 40 -c 1 -i 8 -a 1 -x {2.1 0.1 1 ------- null}
h -t 0.516128 -s 1 -d 0 -p ack -e 40 -c 1 -i 8 -a 1 -x {2.1 0.1 -1 ------- null}
r -t 0.51696 -s 2 -d 1 -p ack -e 40 -c 1 -i 9 -a 1 -x {2.1 0.1 2 ------- null}
+ -t 0.51696 -s 1 -d 0 -p ack -e 40 -c 1 -i 9 -a 1 -x {2.1 0.1 2 ------- null}
- -t 0.51696 -s 1 -d 0 -p ack -e 40 -c 1 -i 9 -a 1 -x {2.1 0.1 2 ------- null}
h -t 0.51696 -s 1 -d 0 -p ack -e 40 -c 1 -i 9 -a 1 -x {2.1 0.1 -1 ------- null}
r -t 0.517168 -s 0 -d 1 -p cbr -e 210 -c 0 -i 10 -a 0 -x {0.0 2.0 4 ------- null}
+ -t 0.517168 -s 1 -d 2 -p cbr -e 210 -c 0 -i 10 -a 0 -x {0.0 2.0 4 ------- null}
- -t 0.517168 -s 1 -d 2 -p cbr -e 210 -c 0 -i 10 -a 0 -x {0.0 2.0 4 ------- null}
h -t 0.517168 -s 1 -d 2 -p cbr -e 210 -c 0 -i 10 -a 0 -x {0.0 2.0 -1 ------- null}
r -t 0.51816 -s 1 -d 0 -p ack -e 40 -c 1 -i 8 -a 1 -x {2.1 0.1 1 ------- null}
+ -t 0.51816 -s 0 -d 1 -p tcp -e 1040 -c 1 -i 11 -a 1 -x {0.1 2.1 3 ------- null}
- -t 0.51816 -s 0 -d 1 -p tcp -e 1040 -c 1 -i 11 -a 1 -x {0.1 2.1 3 ------- null}
h -t 0.51816 -s 0 -d 1 -p tcp -e 1040 -c 1 -i 11 -a 1 -x {0.1 2.1 -1 ------- null}
+ -t 0.51816 -s 0 -d 1 -p tcp -e 1040 -c 1 -i 12 -a 1 -x {0.1 2.1 4 ------- null}
+ -t 0.51875 -s 0 -d 1 -p cbr -e 210 -c 0 -i 13 -a 0 -x {0.0 2.0 5 ------- null}
r -t 0.518992 -s 1 -d 0 -p ack -e 40 -c 1 -i 9 -a 1 -x {2.1 0.1 2 ------- null}
+ -t 0.518992 -s 0 -d 1 -p tcp -e 1040 -c 1 -i 14 -a 1 -x {0.1 2.1 5 ------- null}
+ -t 0.518992 -s 0 -d 1 -p tcp -e 1040 -c 1 -i 15 -a 1 -x {0.1 2.1 6 ------- null}
- -t 0.518992 -s 0 -d 1 -p tcp -e 1040 -c 1 -i 12 -a 1 -x {0.1 2.1 4 ------- null}
h -t 0.518992 -s 0 -d 1 -p tcp -e 1040 -c 1 -i 12 -a 1 -x {0.1 2.1 -1 ------- null}
r -t 0.519336 -s 1 -d 2 -p cbr -e 210 -c 0 -i 10 -a 0 -x {0.0 2.0 4 ------- null}
- -t 0.519824 -s 0 -d 1 -p cbr -e 210 -c 0 -i 13 -a 0 -x {0.0 2.0 5 ------- null}
h -t 0.519824 -s 0 -d 1 -p cbr -e 210 -c 0 -i 13 -a 0 -x {0.0 2.0 -1 ------- null}
- -t 0.519992 -s 0 -d 1 -p tcp -e 1040 -c 1 -i 14 -a 1 -x {0.1 2.1 5 ------- null}
h -t 0.519992 -s 0 -d 1 -p tcp -e 1040 -c 1 -i 14 -a 1 -x {0.1 2.1 -1 ------- null}
- -t 0.520824 -s 0 -d 1 -p tcp -e 1040 -c 1 -i 15 -a 1 -x {0.1 2.1 6 ------- null}
h -t 0.520824 -s 0 -d 1 -p tcp -e 1040 -c 1 -i 15 -a 1 -x {0.1 2.1 -1 ------- null}
r -t 0.520992 -s 0 -d 1 -p tcp -e 1040 -c 1 -i 11 -a 1 -x {0.1 2.1 3 ------- null}
+ -t 0.520992 -s 1 -d 2 -p tcp -e 1040 -c 1 -i 11 -a 1 -x {0.1 2.1 3 ------- null}
- -t 0.520992 -s 1 -d 2 -p tcp -e 1040 -c 1 -i 11 -a 1 -x {0.1 2.1 3 ------- null}
h -t 0.520992 -s 1 -d 2 -p tcp -e 1040 -c 1 -i 11 -a 1 -x {0.1 2.1 -1 ------- null}
r -t 0.521824 -s 0 -d 1 -p tcp -e 1040 -c 1 -i 12 -a 1 -x {0.1 2.1 4 ------- null}
+ -t 0.521824 -s 1 -d 2 -p tcp -e 1040 -c 1 -i 12 -a 1 -x {0.1 2.1 4 ------- null}
- -t 0.521824 -s 1 -d 2 -p tcp -e 1040 -c 1 -i 12 -a 1 -x {0.1 2.1 4 ------- null}
h -t 0.521824 -s 1 -d 2 -p tcp -e 1040 -c 1 -i 12 -a 1 -x {0.1 2.1 -1 ------- null}
r -t 0.521992 -s 0 -d 1 -p cbr -e 210 -c 0 -i 13 -a 0 -x {0.0 2.0 5 ------- null}
+ -t 0.521992 -s 1 -d 2 -p cbr -e 210 -c 0 -i 13 -a 0 -x {0.0 2.0 5 ------- null}
+ -t 0.5225 -s 0 -d 1 -p cbr -e 210 -c 0 -i 16 -a 0 -x {0.0 2.0 6 ------- null}
- -t 0.5225 -s 0 -d 1 -p cbr -e 210 -c 0 -i 16 -a 0 -x {0.0 2.0 6 ------- null}
h -t 0.5225 -s 0 -d 1 -p cbr -e 210 -c 0 -i 16 -a 0 -x {0.0 2.0 -1 ------- null}
- -t 0.522656 -s 1 -d 2 -p cbr -e 210 -c 0 -i 13 -a 0 -x {0.0 2.0 5 ------- null}
h -t 0.522656 -s 1 -d 2 -p cbr -e 210 -c 0 -i 13 -a 0 -x {0.0 2.0 -1 ------- null}
r -t 0.522824 -s 0 -d 1 -p tcp -e 1040 -c 1 -i 14 -a 1 -x {0.1 2.1 5 ------- null}
+ -t 0.522824 -s 1 -d 2 -p tcp -e 1040 -c 1 -i 14 -a 1 -x {0.1 2.1 5 ------- null}
- -t 0.522824 -s 1 -d 2 -p tcp -e 1040 -c 1 -i 14 -a 1 -x {0.1 2.1 5 ------- null}
h -t 0.522824 -s 1 -d 2 -p tcp -e 1040 -c 1 -i 14 -a 1 -x {0.1 2.1 -1 ------- null}
r -t 0.523656 -s 0 -d 1 -p tcp -e 1040 -c 1 -i 15 -a 1 -x {0.1 2.1 6 ------- null}
+ -t 0.523656 -s 1 -d 2 -p tcp -e 1040 -c 1 -i 15 -a 1 -x {0.1 2.1 6 ------- null}
- -t 0.523656 -s 1 -d 2 -p tcp -e 1040 -c 1 -i 15 -a 1 -x {0.1 2.1 6 ------- null}
h -t 0.523656 -s 1 -d 2 -p tcp -e 1040 -c 1 -i 15 -a 1 -x {0.1 2.1 -1 ------- null}
r -t 0.523824 -s 1 -d 2 -p tcp -e 1040 -c 1 -i 11 -a 1 -x {0.1 2.1 3 ------- null}
+ -t 0.523824 -s 2 -d 1 -p ack -e 40 -c 1 -i 17 -a 1 -x {2.1 0.1 3 ------- null}
- -t 0.523824 -s 2 -d 1 -p ack -e 40 -c 1 -i 17 -a 1 -x {2.1 0.1 3 ------- null}
h -t 0.523824 -s 2 -d 1 -p ack -e 40 -c 1 -i 17 -a 1 -x {2.1 0.1 -1 ------- null}
r -t 0.524656 -s 1 -d 2 -p tcp -e 1040 -c 1 -i 12 -a 1 -x {0.1 2.1 4 ------- null}
+ -t 0.524656 -s 2 -d 1 -p ack -e 40 -c 1 -i 18 -a 1 -x {2.1 0.1 4 ------- null}
- -t 0.524656 -s 2 -d 1 -p ack -e 40 -c 1 -i 18 -a 1 -x {2.1 0.1 4 ------- null}
h -t 0.524656 -s 2 -d 1 -p ack -e 40 -c 1 -i 18 -a 1 -x {2.1 0.1 -1 ------- null}
r -t 0.524668 -s 0 -d 1 -p cbr -e 210 -c 0 -i 16 -a 0 -x {0.0 2.0 6 ------- null}
+ -t 0.524668 -s 1 -d 2 -p cbr -e 210 -c 0 -i 16 -a 0 -x {0.0 2.0 6 ------- null}
- -t 0.524668 -s 1 -d 2 -p cbr -e 210 -c 0 -i 16 -a 0 -x {0.0 2.0 6 ------- null}
h -t 0.524668 -s 1 -d 2 -p cbr -e 210 -c 0 -i 16 -a 0 -x {0.0 2.0 -1 ------- null}
r -t 0.524824 -s 1 -d 2 -p cbr -e 210 -c 0 -i 13 -a 0 -x {0.0 2.0 5 ------- null}
r -t 0.525656 -s 1 -d 2 -p tcp -e 1040 -c 1 -i 14 -a 1 -x {0.1 2.1 5 ------- null}
+ -t 0.525656 -s 2 -d 1 -p ack -e 40 -c 1 -i 19 -a 1 -x {2.1 0.1 5 ------- null}
- -t 0.525656 -s 2 -d 1 -p ack -e 40 -c 1 -i 19 -a 1 -x {2.1 0.1 5 ------- null}
h -t 0.525656 -s 2 -d 1 -p ack -e 40 -c 1 -i 19 -a 1 -x {2.1 0.1 -1 ------- null}
r -t 0.525856 -s 2 -d 1 -p ack -e 40 -c 1 -i 17 -a 1 -x {2.1 0.1 3 ------- null}
+ -t 0.525856 -s 1 -d 0 -p ack -e 40 -c 1 -i 17 -a 1 -x {2.1 0.1 3 ------- null}
- -t 0.525856 -s 1 -d 0 -p ack -e 40 -c 1 -i 17 -a 1 -x {2.1 0.1 3 ------- null}
h -t 0.525856 -s 1 -d 0 -p ack -e 40 -c 1 -i 17 -a 1 -x {2.1 0.1 -1 ------- null}
+ -t 0.52625 -s 0 -d 1 -p cbr -e 210 -c 0 -i 20 -a 0 -x {0.0 2.0 7 ------- null}
- -t 0.52625 -s 0 -d 1 -p cbr -e 210 -c 0 -i 20 -a 0 -x {0.0 2.0 7 ------- null}
h -t 0.52625 -s 0 -d 1 -p cbr -e 210 -c 0 -i 20 -a 0 -x {0.0 2.0 -1 ------- null}
r -t 0.526488 -s 1 -d 2 -p tcp -e 1040 -c 1 -i 15 -a 1 -x {0.1 2.1 6 ------- null}
+ -t 0.526488 -s 2 -d 1 -p ack -e 40 -c 1 -i 21 -a 1 -x {2.1 0.1 6 ------- null}
- -t 0.526488 -s 2 -d 1 -p ack -e 40 -c 1 -i 21 -a 1 -x {2.1 0.1 6 ------- null}
h -t 0.526488 -s 2 -d 1 -p ack -e 40 -c 1 -i 21 -a 1 -x {2.1 0.1 -1 ------- null}
r -t 0.526688 -s 2 -d 1 -p ack -e 40 -c 1 -i 18 -a 1 -x {2.1 0.1 4 ------- null}
+ -t 0.526688 -s 1 -d 0 -p ack -e 40 -c 1 -i 18 -a 1 -x {2.1 0.1 4 ------- null}
- -t 0.526688 -s 1 -d 0 -p ack -e 40 -c 1 -i 18 -a 1 -x {2.1 0.1 4 ------- null}
h -t 0.526688 -s 1 -d 0 -p ack -e 40 -c 1 -i 18 -a 1 -x {2.1 0.1 -1 ------- null}
r -t 0.526836 -s 1 -d 2 -p cbr -e 210 -c 0 -i 16 -a 0 -x {0.0 2.0 6 ------- null}
r -t 0.527688 -s 2 -d 1 -p ack -e 40 -c 1 -i 19 -a 1 -x {2.1 0.1 5 ------- null}
+ -t 0.527688 -s 1 -d 0 -p ack -e 40 -c 1 -i 19 -a 1 -x {2.1 0.1 5 ------- null}
- -t 0.527688 -s 1 -d 0 -p ack -e 40 -c 1 -i 19 -a 1 -x {2.1 0.1 5 ------- null}
h -t 0.527688 -s 1 -d 0 -p ack -e 40 -c 1 -i 19 -a 1 -x {2.1 0.1 -1 ------- null}
r -t 0.527888 -s 1 -d 0 -p ack -e 40 -c 1 -i 17 -a 1 -x {2.1 0.1 3 ------- null}
+ -t 0.527888 -s 0 -d 1 -p tcp -e 1040 -c 1 -i 22 -a 1 -x {0.1 2.1 7 ------- null}
- -t 0.527888 -s 0 -d 1 -p tcp -e 1040 -c 1 -i 22 -a 1 -x {0.1 2.1 7 ------- null}
h -t 0.527888 -s 0 -d 1 -p tcp -e 1040 -c 1 -i 22 -a 1 -x {0.1 2.1 -1 ------- null}
+ -t 0.527888 -s 0 -d 1 -p tcp -e 1040 -c 1 -i 23 -a 1 -x {0.1 2.1 8 ------- null}
r -t 0.528418 -s 0 -d 1 -p cbr -e 210 -c 0 -i 20 -a 0 -x {0.0 2.0 7 ------- null}
+ -t 0.528418 -s 1 -d 2 -p cbr -e 210 -c 0 -i 20 -a 0 -x {0.0 2.0 7 ------- null}
- -t 0.528418 -s 1 -d 2 -p cbr -e 210 -c 0 -i 20 -a 0 -x {0.0 2.0 7 ------- null}
h -t 0.528418 -s 1 -d 2 -p cbr -e 210 -c 0 -i 20 -a 0 -x {0.0 2.0 -1 ------- null}
r -t 0.52852 -s 2 -d 1 -p ack -e 40 -c 1 -i 21 -a 1 -x {2.1 0.1 6 ------- null}
+ -t 0.52852 -s 1 -d 0 -p ack -e 40 -c 1 -i 21 -a 1 -x {2.1 0.1 6 ------- null}
- -t 0.52852 -s 1 -d 0 -p ack -e 40 -c 1 -i 21 -a 1 -x {2.1 0.1 6 ------- null}
h -t 0.52852 -s 1 -d 0 -p ack -e 40 -c 1 -i 21 -a 1 -x {2.1 0.1 -1 ------- null}
r -t 0.52872 -s 1 -d 0 -p ack -e 40 -c 1 -i 18 -a 1 -x {2.1 0.1 4 ------- null}
+ -t 0.52872 -s 0 -d 1 -p tcp -e 1040 -c 1 -i 24 -a 1 -x {0.1 2.1 9 ------- null}
+ -t 0.52872 -s 0 -d 1 -p tcp -e 1040 -c 1 -i 25 -a 1 -x {0.1 2.1 10 ------- null}
- -t 0.52872 -s 0 -d 1 -p tcp -e 1040 -c 1 -i 23 -a 1 -x {0.1 2.1 8 ------- null}
h -t 0.52872 -s 0 -d 1 -p tcp -e 1040 -c 1 -i 23 -a 1 -x {0.1 2.1 -1 ------- null}
- -t 0.529552 -s 0 -d 1 -p tcp -e 1040 -c 1 -i 24 -a 1 -x {0.1 2.1 9 ------- null}
h -t 0.529552 -s 0 -d 1 -p tcp -e 1040 -c 1 -i 24 -a 1 -x {0.1 2.1 -1 ------- null}
r -t 0.52972 -s 1 -d 0 -p ack -e 40 -c 1 -i 19 -a 1 -x {2.1 0.1 5 ------- null}
+ -t 0.52972 -s 0 -d 1 -p tcp -e 1040 -c 1 -i 26 -a 1 -x {0.1 2.1 11 ------- null}
+ -t 0.52972 -s 0 -d 1 -p tcp -e 1040 -c 1 -i 27 -a 1 -x {0.1 2.1 12 ------- null}
+ -t 0.53 -s 0 -d 1 -p cbr -e 210 -c 0 -i 28 -a 0 -x {0.0 2.0 8 ------- null}
- -t 0.530384 -s 0 -d 1 -p tcp -e 1040 -c 1 -i 25 -a 1 -x {0.1 2.1 10 ------- null}
h -t 0.530384 -s 0 -d 1 -p tcp -e 1040 -c 1 -i 25 -a 1 -x {0.1 2.1 -1 ------- null}
r -t 0.530552 -s 1 -d 0 -p ack -e 40 -c 1 -i 21 -a 1 -x {2.1 0.1 6 ------- null}
+ -t 0.530552 -s 0 -d 1 -p tcp -e 1040 -c 1 -i 29 -a 1 -x {0.1 2.1 13 ------- null}
+ -t 0.530552 -s 0 -d 1 -p tcp -e 1040 -c 1 -i 30 -a 1 -x {0.1 2.1 14 ------- null}
r -t 0.530586 -s 1 -d 2 -p cbr -e 210 -c 0 -i 20 -a 0 -x {0.0 2.0 7 ------- null}
r -t 0.53072 -s 0 -d 1 -p tcp -e 1040 -c 1 -i 22 -a 1 -x {0.1 2.1 7 ------- null}
+ -t 0.53072 -s 1 -d 2 -p tcp -e 1040 -c 1 -i 22 -a 1 -x {0.1 2.1 7 ------- null}
- -t 0.53072 -s 1 -d 2 -p tcp -e 1040 -c 1 -i 22 -a 1 -x {0.1 2.1 7 ------- null}
h -t 0.53072 -s 1 -d 2 -p tcp -e 1040 -c 1 -i 22 -a 1 -x {0.1 2.1 -1 ------- null}
- -t 0.531216 -s 0 -d 1 -p tcp -e 1040 -c 1 -i 26 -a 1 -x {0.1 2.1 11 ------- null}
h -t 0.531216 -s 0 -d 1 -p tcp -e 1040 -c 1 -i 26 -a 1 -x {0.1 2.1 -1 ------- null}
r -t 0.531552 -s 0 -d 1 -p tcp -e 1040 -c 1 -i 23 -a 1 -x {0.1 2.1 8 ------- null}
+ -t 0.531552 -s 1 -d 2 -p tcp -e 1040 -c 1 -i 23 -a 1 -x {0.1 2.1 8 ------- null}
- -t 0.531552 -s 1 -d 2 -p tcp -e 1040 -c 1 -i 23 -a 1 -x {0.1 2.1 8 ------- null}
h -t 0.531552 -s 1 -d 2 -p tcp -e 1040 -c 1 -i 23 -a 1 -x {0.1 2.1 -1 ------- null}
- -t 0.532048 -s 0 -d 1 -p tcp -e 1040 -c 1 -i 27 -a 1 -x {0.1 2.1 12 ------- null}
h -t 0.532048 -s 0 -d 1 -p tcp -e 1040 -c 1 -i 27 -a 1 -x {0.1 2.1 -1 ------- null}
r -t 0.532384 -s 0 -d 1 -p tcp -e 1040 -c 1 -i 24 -a 1 -x {0.1 2.1 9 ------- null}
+ -t 0.532384 -s 1 -d 2 -p tcp -e 1040 -c 1 -i 24 -a 1 -x {0.1 2.1 9 ------- null}
- -t 0.532384 -s 1 -d 2 -p tcp -e 1040 -c 1 -i 24 -a 1 -x {0.1 2.1 9 ------- null}
h -t 0.532384 -s 1 -d 2 -p tcp -e 1040 -c 1 -i 24 -a 1 -x {0.1 2.1 -1 ------- null}
- -t 0.53288 -s 0 -d 1 -p cbr -e 210 -c 0 -i 28 -a 0 -x {0.0 2.0 8 ------- null}
h -t 0.53288 -s 0 -d 1 -p cbr -e 210 -c 0 -i 28 -a 0 -x {0.0 2.0 -1 ------- null}
- -t 0.533048 -s 0 -d 1 -p tcp -e 1040 -c 1 -i 29 -a 1 -x {0.1 2.1 13 ------- null}
h -t 0.533048 -s 0 -d 1 -p tcp -e 1040 -c 1 -i 29 -a 1 -x {0.1 2.1 -1 ------- null}
r -t 0.533216 -s 0 -d 1 -p tcp -e 1040 -c 1 -i 25 -a 1 -x {0.1 2.1 10 ------- null}
+ -t 0.533216 -s 1 -d 2 -p tcp -e 1040 -c 1 -i 25 -a 1 -x {0.1 2.1 10 ------- null}
- -t 0.533216 -s 1 -d 2 -p tcp -e 1040 -c 1 -i 25 -a 1 -x {0.1 2.1 10 ------- null}
h -t 0.533216 -s 1 -d 2 -p tcp -e 1040 -c 1 -i 25 -a 1 -x {0.1 2.1 -1 ------- null}
r -t 0.533552 -s 1 -d 2 -p tcp -e 1040 -c 1 -i 22 -a 1 -x {0.1 2.1 7 ------- null}
+ -t 0.533552 -s 2 -d 1 -p ack -e 40 -c 1 -i 31 -a 1 -x {2.1 0.1 7 ------- null}
- -t 0.533552 -s 2 -d 1 -p ack -e 40 -c 1 -i 31 -a 1 -x {2.1 0.1 7 ------- null}
h -t 0.533552 -s 2 -d 1 -p ack -e 40 -c 1 -i 31 -a 1 -x {2.1 0.1 -1 ------- null}
+ -t 0.53375 -s 0 -d 1 -p cbr -e 210 -c 0 -i 32 -a 0 -x {0.0 2.0 9 ------- null}
- -t 0.53388 -s 0 -d 1 -p tcp -e 1040 -c 1 -i 30 -a 1 -x {0.1 2.1 14 ------- null}
h -t 0.53388 -s 0 -d 1 -p tcp -e 1040 -c 1 -i 30 -a 1 -x {0.1 2.1 -1 ------- null}
r -t 0.534048 -s 0 -d 1 -p tcp -e 1040 -c 1 -i 26 -a 1 -x {0.1 2.1 11 ------- null}
+ -t 0.534048 -s 1 -d 2 -p tcp -e 1040 -c 1 -i 26 -a 1 -x {0.1 2.1 11 ------- null}
- -t 0.534048 -s 1 -d 2 -p tcp -e 1040 -c 1 -i 26 -a 1 -x {0.1 2.1 11 ------- null}
h -t 0.534048 -s 1 -d 2 -p tcp -e 1040 -c 1 -i 26 -a 1 -x {0.1 2.1 -1 ------- null}
r -t 0.534384 -s 1 -d 2 -p tcp -e 1040 -c 1 -i 23 -a 1 -x {0.1 2.1 8 ------- null}
+ -t 0.534384 -s 2 -d 1 -p ack -e 40 -c 1 -i 33 -a 1 -x {2.1 0.1 8 ------- null}
- -t 0.534384 -s 2 -d 1 -p ack -e 40 -c 1 -i 33 -a 1 -x {2.1 0.1 8 ------- null}
h -t 0.534384 -s 2 -d 1 -p ack -e 40 -c 1 -i 33 -a 1 -x {2.1 0.1 -1 ------- null}
- -t 0.534712 -s 0 -d 1 -p cbr -e 210 -c 0 -i 32 -a 0 -x {0.0 2.0 9 ------- null}
h -t 0.534712 -s 0 -d 1 -p cbr -e 210 -c 0 -i 32 -a 0 -x {0.0 2.0 -1 ------- null}
r -t 0.53488 -s 0 -d 1 -p tcp -e 1040 -c 1 -i 27 -a 1 -x {0.1 2.1 12 ------- null}
+ -t 0.53488 -s 1 -d 2 -p tcp -e 1040 -c 1 -i 27 -a 1 -x {0.1 2.1 12 ------- null}
- -t 0.53488 -s 1 -d 2 -p tcp -e 1040 -c 1 -i 27 -a 1 -x {0.1 2.1 12 ------- null}
h -t 0.53488 -s 1 -d 2 -p tcp -e 1040 -c 1 -i 27 -a 1 -x {0.1 2.1 -1 ------- null}
r -t 0.535048 -s 0 -d 1 -p cbr -e 210 -c 0 -i 28 -a 0 -x {0.0 2.0 8 ------- null}
+ -t 0.535048 -s 1 -d 2 -p cbr -e 210 -c 0 -i 28 -a 0 -x {0.0 2.0 8 ------- null}
r -t 0.535216 -s 1 -d 2 -p tcp -e 1040 -c 1 -i 24 -a 1 -x {0.1 2.1 9 ------- null}
+ -t 0.535216 -s 2 -d 1 -p ack -e 40 -c 1 -i 34 -a 1 -x {2.1 0.1 9 ------- null}
- -t 0.535216 -s 2 -d 1 -p ack -e 40 -c 1 -i 34 -a 1 -x {2.1 0.1 9 ------- null}
h -t 0.535216 -s 2 -d 1 -p ack -e 40 -c 1 -i 34 -a 1 -x {2.1 0.1 -1 ------- null}
r -t 0.535584 -s 2 -d 1 -p ack -e 40 -c 1 -i 31 -a 1 -x {2.1 0.1 7 ------- null}
+ -t 0.535584 -s 1 -d 0 -p ack -e 40 -c 1 -i 31 -a 1 -x {2.1 0.1 7 ------- null}
- -t 0.535584 -s 1 -d 0 -p ack -e 40 -c 1 -i 31 -a 1 -x {2.1 0.1 7 ------- null}
h -t 0.535584 -s 1 -d 0 -p ack -e 40 -c 1 -i 31 -a 1 -x {2.1 0.1 -1 ------- null}
- -t 0.535712 -s 1 -d 2 -p cbr -e 210 -c 0 -i 28 -a 0 -x {0.0 2.0 8 ------- null}
h -t 0.535712 -s 1 -d 2 -p cbr -e 210 -c 0 -i 28 -a 0 -x {0.0 2.0 -1 ------- null}
r -t 0.53588 -s 0 -d 1 -p tcp -e 1040 -c 1 -i 29 -a 1 -x {0.1 2.1 13 ------- null}
+ -t 0.53588 -s 1 -d 2 -p tcp -e 1040 -c 1 -i 29 -a 1 -x {0.1 2.1 13 ------- null}
- -t 0.53588 -s 1 -d 2 -p tcp -e 1040 -c 1 -i 29 -a 1 -x {0.1 2.1 13 ------- null}
h -t 0.53588 -s 1 -d 2 -p tcp -e 1040 -c 1 -i 29 -a 1 -x {0.1 2.1 -1 ------- null}
r -t 0.536048 -s 1 -d 2 -p tcp -e 1040 -c 1 -i 25 -a 1 -x {0.1 2.1 10 ------- null}
+ -t 0.536048 -s 2 -d 1 -p ack -e 40 -c 1 -i 35 -a 1 -x {2.1 0.1 10 ------- null}
- -t 0.536048 -s 2 -d 1 -p ack -e 40 -c 1 -i 35 -a 1 -x {2.1 0.1 10 ------- null}
h -t 0.536048 -s 2 -d 1 -p ack -e 40 -c 1 -i 35 -a 1 -x {2.1 0.1 -1 ------- null}
r -t 0.536416 -s 2 -d 1 -p ack -e 40 -c 1 -i 33 -a 1 -x {2.1 0.1 8 ------- null}
+ -t 0.536416 -s 1 -d 0 -p ack -e 40 -c 1 -i 33 -a 1 -x {2.1 0.1 8 ------- null}
- -t 0.536416 -s 1 -d 0 -p ack -e 40 -c 1 -i 33 -a 1 -x {2.1 0.1 8 ------- null}
h -t 0.536416 -s 1 -d 0 -p ack -e 40 -c 1 -i 33 -a 1 -x {2.1 0.1 -1 ------- null}
r -t 0.536712 -s 0 -d 1 -p tcp -e 1040 -c 1 -i 30 -a 1 -x {0.1 2.1 14 ------- null}
+ -t 0.536712 -s 1 -d 2 -p tcp -e 1040 -c 1 -i 30 -a 1 -x {0.1 2.1 14 ------- null}
- -t 0.536712 -s 1 -d 2 -p tcp -e 1040 -c 1 -i 30 -a 1 -x {0.1 2.1 14 ------- null}
h -t 0.536712 -s 1 -d 2 -p tcp -e 1040 -c 1 -i 30 -a 1 -x {0.1 2.1 -1 ------- null}
r -t 0.53688 -s 1 -d 2 -p tcp -e 1040 -c 1 -i 26 -a 1 -x {0.1 2.1 11 ------- null}
+ -t 0.53688 -s 2 -d 1 -p ack -e 40 -c 1 -i 36 -a 1 -x {2.1 0.1 11 ------- null}
- -t 0.53688 -s 2 -d 1 -p ack -e 40 -c 1 -i 36 -a 1 -x {2.1 0.1 11 ------- null}
h -t 0.53688 -s 2 -d 1 -p ack -e 40 -c 1 -i 36 -a 1 -x {2.1 0.1 -1 ------- null}
r -t 0.53688 -s 0 -d 1 -p cbr -e 210 -c 0 -i 32 -a 0 -x {0.0 2.0 9 ------- null}
+ -t 0.53688 -s 1 -d 2 -p cbr -e 210 -c 0 -i 32 -a 0 -x {0.0 2.0 9 ------- null}
r -t 0.537248 -s 2 -d 1 -p ack -e 40 -c 1 -i 34 -a 1 -x {2.1 0.1 9 ------- null}
+ -t 0.537248 -s 1 -d 0 -p ack -e 40 -c 1 -i 34 -a 1 -x {2.1 0.1 9 ------- null}
- -t 0.537248 -s 1 -d 0 -p ack -e 40 -c 1 -i 34 -a 1 -x {2.1 0.1 9 ------- null}
h -t 0.537248 -s 1 -d 0 -p ack -e 40 -c 1 -i 34 -a 1 -x {2.1 0.1 -1 ------- null}
+ -t 0.5375 -s 0 -d 1 -p cbr -e 210 -c 0 -i 37 -a 0 -x {0.0 2.0 10 ------- null}
- -t 0.5375 -s 0 -d 1 -p cbr -e 210 -c 0 -i 37 -a 0 -x {0.0 2.0 10 ------- null}
h -t 0.5375 -s 0 -d 1 -p cbr -e 210 -c 0 -i 37 -a 0 -x {0.0 2.0 -1 ------- null}
- -t 0.537544 -s 1 -d 2 -p cbr -e 210 -c 0 -i 32 -a 0 -x {0.0 2.0 9 ------- null}
h -t 0.537544 -s 1 -d 2 -p cbr -e 210 -c 0 -i 32 -a 0 -x {0.0 2.0 -1 ------- null}
r -t 0.537616 -s 1 -d 0 -p ack -e 40 -c 1 -i 31 -a 1 -x {2.1 0.1 7 ------- null}
+ -t 0.537616 -s 0 -d 1 -p tcp -e 1040 -c 1 -i 38 -a 1 -x {0.1 2.1 15 ------- null}
+ -t 0.537616 -s 0 -d 1 -p tcp -e 1040 -c 1 -i 39 -a 1 -x {0.1 2.1 16 ------- null}
- -t 0.537668 -s 0 -d 1 -p tcp -e 1040 -c 1 -i 38 -a 1 -x {0.1 2.1 15 ------- null}
h -t 0.537668 -s 0 -d 1 -p tcp -e 1040 -c 1 -i 38 -a 1 -x {0.1 2.1 -1 ------- null}
r -t 0.537712 -s 1 -d 2 -p tcp -e 1040 -c 1 -i 27 -a 1 -x {0.1 2.1 12 ------- null}
+ -t 0.537712 -s 2 -d 1 -p ack -e 40 -c 1 -i 40 -a 1 -x {2.1 0.1 12 ------- null}
- -t 0.537712 -s 2 -d 1 -p ack -e 40 -c 1 -i 40 -a 1 -x {2.1 0.1 12 ------- null}
h -t 0.537712 -s 2 -d 1 -p ack -e 40 -c 1 -i 40 -a 1 -x {2.1 0.1 -1 ------- null}
r -t 0.53788 -s 1 -d 2 -p cbr -e 210 -c 0 -i 28 -a 0 -x {0.0 2.0 8 ------- null}
r -t 0.53808 -s 2 -d 1 -p ack -e 40 -c 1 -i 35 -a 1 -x {2.1 0.1 10 ------- null}
+ -t 0.53808 -s 1 -d 0 -p ack -e 40 -c 1 -i 35 -a 1 -x {2.1 0.1 10 ------- null}
- -t 0.53808 -s 1 -d 0 -p ack -e 40 -c 1 -i 35 -a 1 -x {2.1 0.1 10 ------- null}
h -t 0.53808 -s 1 -d 0 -p ack -e 40 -c 1 -i 35 -a 1 -x {2.1 0.1 -1 ------- null}
r -t 0.538448 -s 1 -d 0 -p ack -e 40 -c 1 -i 33 -a 1 -x {2.1 0.1 8 ------- null}
+ -t 0.538448 -s 0 -d 1 -p tcp -e 1040 -c 1 -i 41 -a 1 -x {0.1 2.1 17 ------- null}
+ -t 0.538448 -s 0 -d 1 -p tcp -e 1040 -c 1 -i 42 -a 1 -x {0.1 2.1 18 ------- null}
- -t 0.5385 -s 0 -d 1 -p tcp -e 1040 -c 1 -i 39 -a 1 -x {0.1 2.1 16 ------- null}
h -t 0.5385 -s 0 -d 1 -p tcp -e 1040 -c 1 -i 39 -a 1 -x {0.1 2.1 -1 ------- null}
r -t 0.538712 -s 1 -d 2 -p tcp -e 1040 -c 1 -i 29 -a 1 -x {0.1 2.1 13 ------- null}
+ -t 0.538712 -s 2 -d 1 -p ack -e 40 -c 1 -i 43 -a 1 -x {2.1 0.1 13 ------- null}
- -t 0.538712 -s 2 -d 1 -p ack -e 40 -c 1 -i 43 -a 1 -x {2.1 0.1 13 ------- null}
h -t 0.538712 -s 2 -d 1 -p ack -e 40 -c 1 -i 43 -a 1 -x {2.1 0.1 -1 ------- null}
r -t 0.538912 -s 2 -d 1 -p ack -e 40 -c 1 -i 36 -a 1 -x {2.1 0.1 11 ------- null}
+ -t 0.538912 -s 1 -d 0 -p ack -e 40 -c 1 -i 36 -a 1 -x {2.1 0.1 11 ------- null}
- -t 0.538912 -s 1 -d 0 -p ack -e 40 -c 1 -i 36 -a 1 -x {2.1 0.1 11 ------- null}
h -t 0.538912 -s 1 -d 0 -p ack -e 40 -c 1 -i 36 -a 1 -x {2.1 0.1 -1 ------- null}
r -t 0.53928 -s 1 -d 0 -p ack -e 40 -c 1 -i 34 -a 1 -x {2.1 0.1 9 ------- null}
+ -t 0.53928 -s 0 -d 1 -p tcp -e 1040 -c 1 -i 44 -a 1 -x {0.1 2.1 19 ------- null}
+ -t 0.53928 -s 0 -d 1 -p tcp -e 1040 -c 1 -i 45 -a 1 -x {0.1 2.1 20 ------- null}
- -t 0.539332 -s 0 -d 1 -p tcp -e 1040 -c 1 -i 41 -a 1 -x {0.1 2.1 17 ------- null}
h -t 0.539332 -s 0 -d 1 -p tcp -e 1040 -c 1 -i 41 -a 1 -x {0.1 2.1 -1 ------- null}
r -t 0.539544 -s 1 -d 2 -p tcp -e 1040 -c 1 -i 30 -a 1 -x {0.1 2.1 14 ------- null}
+ -t 0.539544 -s 2 -d 1 -p ack -e 40 -c 1 -i 46 -a 1 -x {2.1 0.1 14 ------- null}
- -t 0.539544 -s 2 -d 1 -p ack -e 40 -c 1 -i 46 -a 1 -x {2.1 0.1 14 ------- null}
h -t 0.539544 -s 2 -d 1 -p ack -e 40 -c 1 -i 46 -a 1 -x {2.1 0.1 -1 ------- null}
r -t 0.539668 -s 0 -d 1 -p cbr -e 210 -c 0 -i 37 -a 0 -x {0.0 2.0 10 ------- null}
+ -t 0.539668 -s 1 -d 2 -p cbr -e 210 -c 0 -i 37 -a 0 -x {0.0 2.0 10 ------- null}
- -t 0.539668 -s 1 -d 2 -p cbr -e 210 -c 0 -i 37 -a 0 -x {0.0 2.0 10 ------- null}
h -t 0.539668 -s 1 -d 2 -p cbr -e 210 -c 0 -i 37 -a 0 -x {0.0 2.0 -1 ------- null}
r -t 0.539712 -s 1 -d 2 -p cbr -e 210 -c 0 -i 32 -a 0 -x {0.0 2.0 9 ------- null}
r -t 0.539744 -s 2 -d 1 -p ack -e 40 -c 1 -i 40 -a 1 -x {2.1 0.1 12 ------- null}
+ -t 0.539744 -s 1 -d 0 -p ack -e 40 -c 1 -i 40 -a 1 -x {2.1 0.1 12 ------- null}
- -t 0.539744 -s 1 -d 0 -p ack -e 40 -c 1 -i 40 -a 1 -x {2.1 0.1 12 ------- null}
h -t 0.539744 -s 1 -d 0 -p ack -e 40 -c 1 -i 40 -a 1 -x {2.1 0.1 -1 ------- null}
r -t 0.540112 -s 1 -d 0 -p ack -e 40 -c 1 -i 35 -a 1 -x {2.1 0.1 10 ------- null}
+ -t 0.540112 -s 0 -d 1 -p tcp -e 1040 -c 1 -i 47 -a 1 -x {0.1 2.1 21 ------- null}
+ -t 0.540112 -s 0 -d 1 -p tcp -e 1040 -c 1 -i 48 -a 1 -x {0.1 2.1 22 ------- null}
- -t 0.540164 -s 0 -d 1 -p tcp -e 1040 -c 1 -i 42 -a 1 -x {0.1 2.1 18 ------- null}
h -t 0.540164 -s 0 -d 1 -p tcp -e 1040 -c 1 -i 42 -a 1 -x {0.1 2.1 -1 ------- null}
r -t 0.5405 -s 0 -d 1 -p tcp -e 1040 -c 1 -i 38 -a 1 -x {0.1 2.1 15 ------- null}
+ -t 0.5405 -s 1 -d 2 -p tcp -e 1040 -c 1 -i 38 -a 1 -x {0.1 2.1 15 ------- null}
- -t 0.5405 -s 1 -d 2 -p tcp -e 1040 -c 1 -i 38 -a 1 -x {0.1 2.1 15 ------- null}
h -t 0.5405 -s 1 -d 2 -p tcp -e 1040 -c 1 -i 38 -a 1 -x {0.1 2.1 -1 ------- null}
r -t 0.540744 -s 2 -d 1 -p ack -e 40 -c 1 -i 43 -a 1 -x {2.1 0.1 13 ------- null}
+ -t 0.540744 -s 1 -d 0 -p ack -e 40 -c 1 -i 43 -a 1 -x {2.1 0.1 13 ------- null}
- -t 0.540744 -s 1 -d 0 -p ack -e 40 -c 1 -i 43 -a 1 -x {2.1 0.1 13 ------- null}
h -t 0.540744 -s 1 -d 0 -p ack -e 40 -c 1 -i 43 -a 1 -x {2.1 0.1 -1 ------- null}
r -t 0.540944 -s 1 -d 0 -p ack -e 40 -c 1 -i 36 -a 1 -x {2.1 0.1 11 ------- null}
+ -t 0.540944 -s 0 -d 1 -p tcp -e 1040 -c 1 -i 49 -a 1 -x {0.1 2.1 23 ------- null}
+ -t 0.540944 -s 0 -d 1 -p tcp -e 1040 -c 1 -i 50 -a 1 -x {0.1 2.1 24 ------- null}
- -t 0.540996 -s 0 -d 1 -p tcp -e 1040 -c 1 -i 44 -a 1 -x {0.1 2.1 19 ------- null}
h -t 0.540996 -s 0 -d 1 -p tcp -e 1040 -c 1 -i 44 -a 1 -x {0.1 2.1 -1 ------- null}
+ -t 0.54125 -s 0 -d 1 -p cbr -e 210 -c 0 -i 51 -a 0 -x {0.0 2.0 11 ------- null}
r -t 0.541332 -s 0 -d 1 -p tcp -e 1040 -c 1 -i 39 -a 1 -x {0.1 2.1 16 ------- null}
+ -t 0.541332 -s 1 -d 2 -p tcp -e 1040 -c 1 -i 39 -a 1 -x {0.1 2.1 16 ------- null}
- -t 0.541332 -s 1 -d 2 -p tcp -e 1040 -c 1 -i 39 -a 1 -x {0.1 2.1 16 ------- null}
h -t 0.541332 -s 1 -d 2 -p tcp -e 1040 -c 1 -i 39 -a 1 -x {0.1 2.1 -1 ------- null}
r -t 0.541576 -s 2 -d 1 -p ack -e 40 -c 1 -i 46 -a 1 -x {2.1 0.1 14 ------- null}
+ -t 0.541576 -s 1 -d 0 -p ack -e 40 -c 1 -i 46 -a 1 -x {2.1 0.1 14 ------- null}
- -t 0.541576 -s 1 -d 0 -p ack -e 40 -c 1 -i 46 -a 1 -x {2.1 0.1 14 ------- null}
h -t 0.541576 -s 1 -d 0 -p ack -e 40 -c 1 -i 46 -a 1 -x {2.1 0.1 -1 ------- null}
r -t 0.541776 -s 1 -d 0 -p ack -e 40 -c 1 -i 40 -a 1 -x {2.1 0.1 12 ------- null}
+ -t 0.541776 -s 0 -d 1 -p tcp -e 1040 -c 1 -i 52 -a 1 -x {0.1 2.1 25 ------- null}
+ -t 0.541776 -s 0 -d 1 -p tcp -e 1040 -c 1 -i 53 -a 1 -x {0.1 2.1 26 ------- null}
- -t 0.541828000000001 -s 0 -d 1 -p tcp -e 1040 -c 1 -i 45 -a 1 -x {0.1 2.1 20 ------- null}
h -t 0.541828000000001 -s 0 -d 1 -p tcp -e 1040 -c 1 -i 45 -a 1 -x {0.1 2.1 -1 ------- null}
r -t 0.541836 -s 1 -d 2 -p cbr -e 210 -c 0 -i 37 -a 0 -x {0.0 2.0 10 ------- null}
r -t 0.542164 -s 0 -d 1 -p tcp -e 1040 -c 1 -i 41 -a 1 -x {0.1 2.1 17 ------- null}
+ -t 0.542164 -s 1 -d 2 -p tcp -e 1040 -c 1 -i 41 -a 1 -x {0.1 2.1 17 ------- null}