V -t * -v 1.0a5 -a 0
A -t * -n 1 -p 0 -o 0x7fffffff -c 30 -a 1
A -t * -h 1 -m 1073741823 -s 0
n -t * -a 4 -s 4 -S UP -v circle -c yellow -i yellow
n -t * -a 0 -s 0 -S UP -v circle -c blue -i blue
n -t * -a 5 -s 5 -S UP -v circle -c brown -i brown
n -t * -a 1 -s 1 -S UP -v circle -c red -i red
n -t * -a 2 -s 2 -S UP -v circle -c red -i red
n -t * -a 3 -s 3 -S UP -v circle -c yellow -i yellow
l -t * -s 0 -d 1 -S UP -r 5000000 -D 0.001 -c black
l -t * -s 0 -d 2 -S UP -r 5000000 -D 0.001 -c black
l -t * -s 1 -d 3 -S UP -r 5000000 -D 0.001 -c black
l -t * -s 1 -d 2 -S UP -r 5000000 -D 0.001 -c black
l -t * -s 2 -d 4 -S UP -r 5000000 -D 0.001 -c black
l -t * -s 4 -d 3 -S UP -r 5000000 -D 0.001 -c black
l -t * -s 3 -d 5 -S UP -r 5000000 -D 0.001 -c black
l -t * -s 4 -d 5 -S UP -r 5000000 -D 0.001 -c black
+ -t 0.5 -s 0 -d 1 -p cbr -e 210 -c 0 -i 0 -a 0 -x {0.0 5.0 0 ------- null}
- -t 0.5 -s 0 -d 1 -p cbr -e 210 -c 0 -i 0 -a 0 -x {0.0 5.0 0 ------- null}
h -t 0.5 -s 0 -d 1 -p cbr -e 210 -c 0 -i 0 -a 0 -x {0.0 5.0 -1 ------- null}
r -t 0.501336 -s 0 -d 1 -p cbr -e 210 -c 0 -i 0 -a 0 -x {0.0 5.0 0 ------- null}
+ -t 0.501336 -s 1 -d 3 -p cbr -e 210 -c 0 -i 0 -a 0 -x {0.0 5.0 0 ------- null}
- -t 0.501336 -s 1 -d 3 -p cbr -e 210 -c 0 -i 0 -a 0 -x {0.0 5.0 0 ------- null}
h -t 0.501336 -s 1 -d 3 -p cbr -e 210 -c 0 -i 0 -a 0 -x {0.0 5.0 -1 ------- null}
r -t 0.502672 -s 1 -d 3 -p cbr -e 210 -c 0 -i 0 -a 0 -x {0.0 5.0 0 ------- null}
+ -t 0.502672 -s 3 -d 5 -p cbr -e 210 -c 0 -i 0 -a 0 -x {0.0 5.0 0 ------- null}
- -t 0.502672 -s 3 -d 5 -p cbr -e 210 -c 0 -i 0 -a 0 -x {0.0 5.0 0 ------- null}
h -t 0.502672 -s 3 -d 5 -p cbr -e 210 -c 0 -i 0 -a 0 -x {0.0 5.0 -1 ------- null}
+ -t 0.50375 -s 0 -d 1 -p cbr -e 210 -c 0 -i 1 -a 0 -x {0.0 5.0 1 ------- null}
- -t 0.50375 -s 0 -d 1 -p cbr -e 210 -c 0 -i 1 -a 0 -x {0.0 5.0 1 ------- null}
h -t 0.50375 -s 0 -d 1 -p cbr -e 210 -c 0 -i 1 -a 0 -x {0.0 5.0 -1 ------- null}
r -t 0.504008 -s 3 -d 5 -p cbr -e 210 -c 0 -i 0 -a 0 -x {0.0 5.0 0 ------- null}
r -t 0.505086 -s 0 -d 1 -p cbr -e 210 -c 0 -i 1 -a 0 -x {0.0 5.0 1 ------- null}
+ -t 0.505086 -s 1 -d 3 -p cbr -e 210 -c 0 -i 1 -a 0 -x {0.0 5.0 1 ------- null}
- -t 0.505086 -s 1 -d 3 -p cbr -e 210 -c 0 -i 1 -a 0 -x {0.0 5.0 1 ------- null}
h -t 0.505086 -s 1 -d 3 -p cbr -e 210 -c 0 -i 1 -a 0 -x {0.0 5.0 -1 ------- null}
r -t 0.506422 -s 1 -d 3 -p cbr -e 210 -c 0 -i 1 -a 0 -x {0.0 5.0 1 ------- null}
+ -t 0.506422 -s 3 -d 5 -p cbr -e 210 -c 0 -i 1 -a 0 -x {0.0 5.0 1 ------- null}
- -t 0.506422 -s 3 -d 5 -p cbr -e 210 -c 0 -i 1 -a 0 -x {0.0 5.0 1 ------- null}
h -t 0.506422 -s 3 -d 5 -p cbr -e 210 -c 0 -i 1 -a 0 -x {0.0 5.0 -1 ------- null}
+ -t 0.5075 -s 0 -d 1 -p cbr -e 210 -c 0 -i 2 -a 0 -x {0.0 5.0 2 ------- null}
- -t 0.5075 -s 0 -d 1 -p cbr -e 210 -c 0 -i 2 -a 0 -x {0.0 5.0 2 ------- null}
h -t 0.5075 -s 0 -d 1 -p cbr -e 210 -c 0 -i 2 -a 0 -x {0.0 5.0 -1 ------- null}
r -t 0.507758 -s 3 -d 5 -p cbr -e 210 -c 0 -i 1 -a 0 -x {0.0 5.0 1 ------- null}
r -t 0.508836 -s 0 -d 1 -p cbr -e 210 -c 0 -i 2 -a 0 -x {0.0 5.0 2 ------- null}
+ -t 0.508836 -s 1 -d 3 -p cbr -e 210 -c 0 -i 2 -a 0 -x {0.0 5.0 2 ------- null}
- -t 0.508836 -s 1 -d 3 -p cbr -e 210 -c 0 -i 2 -a 0 -x {0.0 5.0 2 ------- null}
h -t 0.508836 -s 1 -d 3 -p cbr -e 210 -c 0 -i 2 -a 0 -x {0.0 5.0 -1 ------- null}
r -t 0.510172 -s 1 -d 3 -p cbr -e 210 -c 0 -i 2 -a 0 -x {0.0 5.0 2 ------- null}
+ -t 0.510172 -s 3 -d 5 -p cbr -e 210 -c 0 -i 2 -a 0 -x {0.0 5.0 2 ------- null}
- -t 0.510172 -s 3 -d 5 -p cbr -e 210 -c 0 -i 2 -a 0 -x {0.0 5.0 2 ------- null}
h -t 0.510172 -s 3 -d 5 -p cbr -e 210 -c 0 -i 2 -a 0 -x {0.0 5.0 -1 ------- null}
+ -t 0.51125 -s 0 -d 1 -p cbr -e 210 -c 0 -i 3 -a 0 -x {0.0 5.0 3 ------- null}
- -t 0.51125 -s 0 -d 1 -p cbr -e 210 -c 0 -i 3 -a 0 -x {0.0 5.0 3 ------- null}
h -t 0.51125 -s 0 -d 1 -p cbr -e 210 -c 0 -i 3 -a 0 -x {0.0 5.0 -1 ------- null}
r -t 0.511508 -s 3 -d 5 -p cbr -e 210 -c 0 -i 2 -a 0 -x {0.0 5.0 2 ------- null}
r -t 0.512586 -s 0 -d 1 -p cbr -e 210 -c 0 -i 3 -a 0 -x {0.0 5.0 3 ------- null}
+ -t 0.512586 -s 1 -d 3 -p cbr -e 210 -c 0 -i 3 -a 0 -x {0.0 5.0 3 ------- null}
- -t 0.512586 -s 1 -d 3 -p cbr -e 210 -c 0 -i 3 -a 0 -x {0.0 5.0 3 ------- null}
h -t 0.512586 -s 1 -d 3 -p cbr -e 210 -c 0 -i 3 -a 0 -x {0.0 5.0 -1 ------- null}
r -t 0.513922 -s 1 -d 3 -p cbr -e 210 -c 0 -i 3 -a 0 -x {0.0 5.0 3 ------- null}
+ -t 0.513922 -s 3 -d 5 -p cbr -e 210 -c 0 -i 3 -a 0 -x {0.0 5.0 3 ------- null}
- -t 0.513922 -s 3 -d 5 -p cbr -e 210 -c 0 -i 3 -a 0 -x {0.0 5.0 3 ------- null}
h -t 0.513922 -s 3 -d 5 -p cbr -e 210 -c 0 -i 3 -a 0 -x {0.0 5.0 -1 ------- null}
+ -t 0.515 -s 0 -d 1 -p cbr -e 210 -c 0 -i 4 -a 0 -x {0.0 5.0 4 ------- null}
- -t 0.515 -s 0 -d 1 -p cbr -e 210 -c 0 -i 4 -a 0 -x {0.0 5.0 4 ------- null}
h -t 0.515 -s 0 -d 1 -p cbr -e 210 -c 0 -i 4 -a 0 -x {0.0 5.0 -1 ------- null}
r -t 0.515258 -s 3 -d 5 -p cbr -e 210 -c 0 -i 3 -a 0 -x {0.0 5.0 3 ------- null}
r -t 0.516336 -s 0 -d 1 -p cbr -e 210 -c 0 -i 4 -a 0 -x {0.0 5.0 4 ------- null}
+ -t 0.516336 -s 1 -d 3 -p cbr -e 210 -c 0 -i 4 -a 0 -x {0.0 5.0 4 ------- null}
- -t 0.516336 -s 1 -d 3 -p cbr -e 210 -c 0 -i 4 -a 0 -x {0.0 5.0 4 ------- null}
h -t 0.516336 -s 1 -d 3 -p cbr -e 210 -c 0 -i 4 -a 0 -x {0.0 5.0 -1 ------- null}
r -t 0.517672 -s 1 -d 3 -p cbr -e 210 -c 0 -i 4 -a 0 -x {0.0 5.0 4 ------- null}
+ -t 0.517672 -s 3 -d 5 -p cbr -e 210 -c 0 -i 4 -a 0 -x {0.0 5.0 4 ------- null}
- -t 0.517672 -s 3 -d 5 -p cbr -e 210 -c 0 -i 4 -a 0 -x {0.0 5.0 4 ------- null}
h -t 0.517672 -s 3 -d 5 -p cbr -e 210 -c 0 -i 4 -a 0 -x {0.0 5.0 -1 ------- null}
+ -t 0.51875 -s 0 -d 1 -p cbr -e 210 -c 0 -i 5 -a 0 -x {0.0 5.0 5 ------- null}
- -t 0.51875 -s 0 -d 1 -p cbr -e 210 -c 0 -i 5 -a 0 -x {0.0 5.0 5 ------- null}
h -t 0.51875 -s 0 -d 1 -p cbr -e 210 -c 0 -i 5 -a 0 -x {0.0 5.0 -1 ------- null}
r -t 0.519008 -s 3 -d 5 -p cbr -e 210 -c 0 -i 4 -a 0 -x {0.0 5.0 4 ------- null}
r -t 0.520086 -s 0 -d 1 -p cbr -e 210 -c 0 -i 5 -a 0 -x {0.0 5.0 5 ------- null}
+ -t 0.520086 -s 1 -d 3 -p cbr -e 210 -c 0 -i 5 -a 0 -x {0.0 5.0 5 ------- null}
- -t 0.520086 -s 1 -d 3 -p cbr -e 210 -c 0 -i 5 -a 0 -x {0.0 5.0 5 ------- null}
h -t 0.520086 -s 1 -d 3 -p cbr -e 210 -c 0 -i 5 -a 0 -x {0.0 5.0 -1 ------- null}
r -t 0.521422 -s 1 -d 3 -p cbr -e 210 -c 0 -i 5 -a 0 -x {0.0 5.0 5 ------- null}
+ -t 0.521422 -s 3 -d 5 -p cbr -e 210 -c 0 -i 5 -a 0 -x {0.0 5.0 5 ------- null}
- -t 0.521422 -s 3 -d 5 -p cbr -e 210 -c 0 -i 5 -a 0 -x {0.0 5.0 5 ------- null}
h -t 0.521422 -s 3 -d 5 -p cbr -e 210 -c 0 -i 5 -a 0 -x {0.0 5.0 -1 ------- null}
+ -t 0.5225 -s 0 -d 1 -p cbr -e 210 -c 0 -i 6 -a 0 -x {0.0 5.0 6 ------- null}
- -t 0.5225 -s 0 -d 1 -p cbr -e 210 -c 0 -i 6 -a 0 -x {0.0 5.0 6 ------- null}
h -t 0.5225 -s 0 -d 1 -p cbr -e 210 -c 0 -i 6 -a 0 -x {0.0 5.0 -1 ------- null}
r -t 0.522758 -s 3 -d 5 -p cbr -e 210 -c 0 -i 5 -a 0 -x {0.0 5.0 5 ------- null}
r -t 0.523836 -s 0 -d 1 -p cbr -e 210 -c 0 -i 6 -a 0 -x {0.0 5.0 6 ------- null}
+ -t 0.523836 -s 1 -d 3 -p cbr -e 210 -c 0 -i 6 -a 0 -x {0.0 5.0 6 ------- null}
- -t 0.523836 -s 1 -d 3 -p cbr -e 210 -c 0 -i 6 -a 0 -x {0.0 5.0 6 ------- null}
h -t 0.523836 -s 1 -d 3 -p cbr -e 210 -c 0 -i 6 -a 0 -x {0.0 5.0 -1 ------- null}
r -t 0.525172 -s 1 -d 3 -p cbr -e 210 -c 0 -i 6 -a 0 -x {0.0 5.0 6 ------- null}
+ -t 0.525172 -s 3 -d 5 -p cbr -e 210 -c 0 -i 6 -a 0 -x {0.0 5.0 6 ------- null}
- -t 0.525172 -s 3 -d 5 -p cbr -e 210 -c 0 -i 6 -a 0 -x {0.0 5.0 6 ------- null}
h -t 0.525172 -s 3 -d 5 -p cbr -e 210 -c 0 -i 6 -a 0 -x {0.0 5.0 -1 ------- null}
+ -t 0.52625 -s 0 -d 1 -p cbr -e 210 -c 0 -i 7 -a 0 -x {0.0 5.0 7 ------- null}
- -t 0.52625 -s 0 -d 1 -p cbr -e 210 -c 0 -i 7 -a 0 -x {0.0 5.0 7 ------- null}
h -t 0.52625 -s 0 -d 1 -p cbr -e 210 -c 0 -i 7 -a 0 -x {0.0 5.0 -1 ------- null}
r -t 0.526508 -s 3 -d 5 -p cbr -e 210 -c 0 -i 6 -a 0 -x {0.0 5.0 6 ------- null}
r -t 0.527586 -s 0 -d 1 -p cbr -e 210 -c 0 -i 7 -a 0 -x {0.0 5.0 7 ------- null}
+ -t 0.527586 -s 1 -d 3 -p cbr -e 210 -c 0 -i 7 -a 0 -x {0.0 5.0 7 ------- null}
- -t 0.527586 -s 1 -d 3 -p cbr -e 210 -c 0 -i 7 -a 0 -x {0.0 5.0 7 ------- null}
h -t 0.527586 -s 1 -d 3 -p cbr -e 210 -c 0 -i 7 -a 0 -x {0.0 5.0 -1 ------- null}
r -t 0.528922 -s 1 -d 3 -p cbr -e 210 -c 0 -i 7 -a 0 -x {0.0 5.0 7 ------- null}
+ -t 0.528922 -s 3 -d 5 -p cbr -e 210 -c 0 -i 7 -a 0 -x {0.0 5.0 7 ------- null}
- -t 0.528922 -s 3 -d 5 -p cbr -e 210 -c 0 -i 7 -a 0 -x {0.0 5.0 7 ------- null}
h -t 0.528922 -s 3 -d 5 -p cbr -e 210 -c 0 -i 7 -a 0 -x {0.0 5.0 -1 ------- null}
+ -t 0.53 -s 0 -d 1 -p cbr -e 210 -c 0 -i 8 -a 0 -x {0.0 5.0 8 ------- null}
- -t 0.53 -s 0 -d 1 -p cbr -e 210 -c 0 -i 8 -a 0 -x {0.0 5.0 8 ------- null}
h -t 0.53 -s 0 -d 1 -p cbr -e 210 -c 0 -i 8 -a 0 -x {0.0 5.0 -1 ------- null}
r -t 0.530258 -s 3 -d 5 -p cbr -e 210 -c 0 -i 7 -a 0 -x {0.0 5.0 7 ------- null}
r -t 0.531336 -s 0 -d 1 -p cbr -e 210 -c 0 -i 8 -a 0 -x {0.0 5.0 8 ------- null}
+ -t 0.531336 -s 1 -d 3 -p cbr -e 210 -c 0 -i 8 -a 0 -x {0.0 5.0 8 ------- null}
- -t 0.531336 -s 1 -d 3 -p cbr -e 210 -c 0 -i 8 -a 0 -x {0.0 5.0 8 ------- null}
h -t 0.531336 -s 1 -d 3 -p cbr -e 210 -c 0 -i 8 -a 0 -x {0.0 5.0 -1 ------- null}
r -t 0.532672 -s 1 -d 3 -p cbr -e 210 -c 0 -i 8 -a 0 -x {0.0 5.0 8 ------- null}
+ -t 0.532672 -s 3 -d 5 -p cbr -e 210 -c 0 -i 8 -a 0 -x {0.0 5.0 8 ------- null}
- -t 0.532672 -s 3 -d 5 -p cbr -e 210 -c 0 -i 8 -a 0 -x {0.0 5.0 8 ------- null}
h -t 0.532672 -s 3 -d 5 -p cbr -e 210 -c 0 -i 8 -a 0 -x {0.0 5.0 -1 ------- null}
+ -t 0.53375 -s 0 -d 1 -p cbr -e 210 -c 0 -i 9 -a 0 -x {0.0 5.0 9 ------- null}
- -t 0.53375 -s 0 -d 1 -p cbr -e 210 -c 0 -i 9 -a 0 -x {0.0 5.0 9 ------- null}
h -t 0.53375 -s 0 -d 1 -p cbr -e 210 -c 0 -i 9 -a 0 -x {0.0 5.0 -1 ------- null}
r -t 0.534008 -s 3 -d 5 -p cbr -e 210 -c 0 -i 8 -a 0 -x {0.0 5.0 8 ------- null}
r -t 0.535086 -s 0 -d 1 -p cbr -e 210 -c 0 -i 9 -a 0 -x {0.0 5.0 9 ------- null}
+ -t 0.535086 -s 1 -d 3 -p cbr -e 210 -c 0 -i 9 -a 0 -x {0.0 5.0 9 ------- null}
- -t 0.535086 -s 1 -d 3 -p cbr -e 210 -c 0 -i 9 -a 0 -x {0.0 5.0 9 ------- null}
h -t 0.535086 -s 1 -d 3 -p cbr -e 210 -c 0 -i 9 -a 0 -x {0.0 5.0 -1 ------- null}
r -t 0.536422 -s 1 -d 3 -p cbr -e 210 -c 0 -i 9 -a 0 -x {0.0 5.0 9 ------- null}
+ -t 0.536422 -s 3 -d 5 -p cbr -e 210 -c 0 -i 9 -a 0 -x {0.0 5.0 9 ------- null}
- -t 0.536422 -s 3 -d 5 -p cbr -e 210 -c 0 -i 9 -a 0 -x {0.0 5.0 9 ------- null}
h -t 0.536422 -s 3 -d 5 -p cbr -e 210 -c 0 -i 9 -a 0 -x {0.0 5.0 -1 ------- null}
+ -t 0.5375 -s 0 -d 1 -p cbr -e 210 -c 0 -i 10 -a 0 -x {0.0 5.0 10 ------- null}
- -t 0.5375 -s 0 -d 1 -p cbr -e 210 -c 0 -i 10 -a 0 -x {0.0 5.0 10 ------- null}
h -t 0.5375 -s 0 -d 1 -p cbr -e 210 -c 0 -i 10 -a 0 -x {0.0 5.0 -1 ------- null}
r -t 0.537758 -s 3 -d 5 -p cbr -e 210 -c 0 -i 9 -a 0 -x {0.0 5.0 9 ------- null}
r -t 0.538836 -s 0 -d 1 -p cbr -e 210 -c 0 -i 10 -a 0 -x {0.0 5.0 10 ------- null}
+ -t 0.538836 -s 1 -d 3 -p cbr -e 210 -c 0 -i 10 -a 0 -x {0.0 5.0 10 ------- null}
- -t 0.538836 -s 1 -d 3 -p cbr -e 210 -c 0 -i 10 -a 0 -x {0.0 5.0 10 ------- null}
h -t 0.538836 -s 1 -d 3 -p cbr -e 210 -c 0 -i 10 -a 0 -x {0.0 5.0 -1 ------- null}
r -t 0.540172 -s 1 -d 3 -p cbr -e 210 -c 0 -i 10 -a 0 -x {0.0 5.0 10 ------- null}
+ -t 0.540172 -s 3 -d 5 -p cbr -e 210 -c 0 -i 10 -a 0 -x {0.0 5.0 10 ------- null}
- -t 0.540172 -s 3 -d 5 -p cbr -e 210 -c 0 -i 10 -a 0 -x {0.0 5.0 10 ------- null}
h -t 0.540172 -s 3 -d 5 -p cbr -e 210 -c 0 -i 10 -a 0 -x {0.0 5.0 -1 ------- null}
+ -t 0.54125 -s 0 -d 1 -p cbr -e 210 -c 0 -i 11 -a 0 -x {0.0 5.0 11 ------- null}
- -t 0.54125 -s 0 -d 1 -p cbr -e 210 -c 0 -i 11 -a 0 -x {0.0 5.0 11 ------- null}
h -t 0.54125 -s 0 -d 1 -p cbr -e 210 -c 0 -i 11 -a 0 -x {0.0 5.0 -1 ------- null}
r -t 0.541508 -s 3 -d 5 -p cbr -e 210 -c 0 -i 10 -a 0 -x {0.0 5.0 10 ------- null}
r -t 0.542586 -s 0 -d 1 -p cbr -e 210 -c 0 -i 11 -a 0 -x {0.0 5.0 11 ------- null}
+ -t 0.542586 -s 1 -d 3 -p cbr -e 210 -c 0 -i 11 -a 0 -x {0.0 5.0 11 ------- null}
- -t 0.542586 -s 1 -d 3 -p cbr -e 210 -c 0 -i 11 -a 0 -x {0.0 5.0 11 ------- null}
h -t 0.542586 -s 1 -d 3 -p cbr -e 210 -c 0 -i 11 -a 0 -x {0.0 5.0 -1 ------- null}
r -t 0.543922 -s 1 -d 3 -p cbr -e 210 -c 0 -i 11 -a 0 -x {0.0 5.0 11 ------- null}
+ -t 0.543922 -s 3 -d 5 -p cbr -e 210 -c 0 -i 11 -a 0 -x {0.0 5.0 11 ------- null}
- -t 0.543922 -s 3 -d 5 -p cbr -e 210 -c 0 -i 11 -a 0 -x {0.0 5.0 11 ------- null}
h -t 0.543922 -s 3 -d 5 -p cbr -e 210 -c 0 -i 11 -a 0 -x {0.0 5.0 -1 ------- null}
+ -t 0.545 -s 0 -d 1 -p cbr -e 210 -c 0 -i 12 -a 0 -x {0.0 5.0 12 ------- null}
- -t 0.545 -s 0 -d 1 -p cbr -e 210 -c 0 -i 12 -a 0 -x {0.0 5.0 12 ------- null}
h -t 0.545 -s 0 -d 1 -p cbr -e 210 -c 0 -i 12 -a 0 -x {0.0 5.0 -1 ------- null}
r -t 0.545258 -s 3 -d 5 -p cbr -e 210 -c 0 -i 11 -a 0 -x {0.0 5.0 11 ------- null}
r -t 0.546336 -s 0 -d 1 -p cbr -e 210 -c 0 -i 12 -a 0 -x {0.0 5.0 12 ------- null}
+ -t 0.546336 -s 1 -d 3 -p cbr -e 210 -c 0 -i 12 -a 0 -x {0.0 5.0 12 ------- null}
- -t 0.546336 -s 1 -d 3 -p cbr -e 210 -c 0 -i 12 -a 0 -x {0.0 5.0 12 ------- null}
h -t 0.546336 -s 1 -d 3 -p cbr -e 210 -c 0 -i 12 -a 0 -x {0.0 5.0 -1 ------- null}
r -t 0.547672 -s 1 -d 3 -p cbr -e 210 -c 0 -i 12 -a 0 -x {0.0 5.0 12 ------- null}
+ -t 0.547672 -s 3 -d 5 -p cbr -e 210 -c 0 -i 12 -a 0 -x {0.0 5.0 12 ------- null}
- -t 0.547672 -s 3 -d 5 -p cbr -e 210 -c 0 -i 12 -a 0 -x {0.0 5.0 12 ------- null}
h -t 0.547672 -s 3 -d 5 -p cbr -e 210 -c 0 -i 12 -a 0 -x {0.0 5.0 -1 ------- null}
+ -t 0.54875 -s 0 -d 1 -p cbr -e 210 -c 0 -i 13 -a 0 -x {0.0 5.0 13 ------- null}
- -t 0.54875 -s 0 -d 1 -p cbr -e 210 -c 0 -i 13 -a 0 -x {0.0 5.0 13 ------- null}
h -t 0.54875 -s 0 -d 1 -p cbr -e 210 -c 0 -i 13 -a 0 -x {0.0 5.0 -1 ------- null}
r -t 0.549008 -s 3 -d 5 -p cbr -e 210 -c 0 -i 12 -a 0 -x {0.0 5.0 12 ------- null}
r -t 0.550086 -s 0 -d 1 -p cbr -e 210 -c 0 -i 13 -a 0 -x {0.0 5.0 13 ------- null}
+ -t 0.550086 -s 1 -d 3 -p cbr -e 210 -c 0 -i 13 -a 0 -x {0.0 5.0 13 ------- null}
- -t 0.550086 -s 1 -d 3 -p cbr -e 210 -c 0 -i 13 -a 0 -x {0.0 5.0 13 ------- null}
h -t 0.550086 -s 1 -d 3 -p cbr -e 210 -c 0 -i 13 -a 0 -x {0.0 5.0 -1 ------- null}
r -t 0.551422 -s 1 -d 3 -p cbr -e 210 -c 0 -i 13 -a 0 -x {0.0 5.0 13 ------- null}
+ -t 0.551422 -s 3 -d 5 -p cbr -e 210 -c 0 -i 13 -a 0 -x {0.0 5.0 13 ------- null}
- -t 0.551422 -s 3 -d 5 -p cbr -e 210 -c 0 -i 13 -a 0 -x {0.0 5.0 13 ------- null}
h -t 0.551422 -s 3 -d 5 -p cbr -e 210 -c 0 -i 13 -a 0 -x {0.0 5.0 -1 ------- null}
+ -t 0.5525 -s 0 -d 1 -p cbr -e 210 -c 0 -i 14 -a 0 -x {0.0 5.0 14 ------- null}
- -t 0.5525 -s 0 -d 1 -p cbr -e 210 -c 0 -i 14 -a 0 -x {0.0 5.0 14 ------- null}
h -t 0.5525 -s 0 -d 1 -p cbr -e 210 -c 0 -i 14 -a 0 -x {0.0 5.0 -1 ------- null}
r -t 0.552758 -s 3 -d 5 -p cbr -e 210 -c 0 -i 13 -a 0 -x {0.0 5.0 13 ------- null}
r -t 0.553836 -s 0 -d 1 -p cbr -e 210 -c 0 -i 14 -a 0 -x {0.0 5.0 14 ------- null}
+ -t 0.553836 -s 1 -d 3 -p cbr -e 210 -c 0 -i 14 -a 0 -x {0.0 5.0 14 ------- null}
- -t 0.553836 -s 1 -d 3 -p cbr -e 210 -c 0 -i 14 -a 0 -x {0.0 5.0 14 ------- null}
h -t 0.553836 -s 1 -d 3 -p cbr -e 210 -c 0 -i 14 -a 0 -x {0.0 5.0 -1 ------- null}
r -t 0.555172 -s 1 -d 3 -p cbr -e 210 -c 0 -i 14 -a 0 -x {0.0 5.0 14 ------- null}
+ -t 0.555172 -s 3 -d 5 -p cbr -e 210 -c 0 -i 14 -a 0 -x {0.0 5.0 14 ------- null}
- -t 0.555172 -s 3 -d 5 -p cbr -e 210 -c 0 -i 14 -a 0 -x {0.0 5.0 14 ------- null}
h -t 0.555172 -s 3 -d 5 -p cbr -e 210 -c 0 -i 14 -a 0 -x {0.0 5.0 -1 ------- null}
+ -t 0.55625 -s 0 -d 1 -p cbr -e 210 -c 0 -i 15 -a 0 -x {0.0 5.0 15 ------- null}
- -t 0.55625 -s 0 -d 1 -p cbr -e 210 -c 0 -i 15 -a 0 -x {0.0 5.0 15 ------- null}
h -t 0.55625 -s 0 -d 1 -p cbr -e 210 -c 0 -i 15 -a 0 -x {0.0 5.0 -1 ------- null}
r -t 0.556508 -s 3 -d 5 -p cbr -e 210 -c 0 -i 14 -a 0 -x {0.0 5.0 14 ------- null}
r -t 0.557586 -s 0 -d 1 -p cbr -e 210 -c 0 -i 15 -a 0 -x {0.0 5.0 15 ------- null}
+ -t 0.557586 -s 1 -d 3 -p cbr -e 210 -c 0 -i 15 -a 0 -x {0.0 5.0 15 ------- null}
- -t 0.557586 -s 1 -d 3 -p cbr -e 210 -c 0 -i 15 -a 0 -x {0.0 5.0 15 ------- null}
h -t 0.557586 -s 1 -d 3 -p cbr -e 210 -c 0 -i 15 -a 0 -x {0.0 5.0 -1 ------- null}
r -t 0.558922 -s 1 -d 3 -p cbr -e 210 -c 0 -i 15 -a 0 -x {0.0 5.0 15 ------- null}
+ -t 0.558922 -s 3 -d 5 -p cbr -e 210 -c 0 -i 15 -a 0 -x {0.0 5.0 15 ------- null}
- -t 0.558922 -s 3 -d 5 -p cbr -e 210 -c 0 -i 15 -a 0 -x {0.0 5.0 15 ------- null}
h -t 0.558922 -s 3 -d 5 -p cbr -e 210 -c 0 -i 15 -a 0 -x {0.0 5.0 -1 ------- null}
+ -t 0.56 -s 0 -d 1 -p cbr -e 210 -c 0 -i 16 -a 0 -x {0.0 5.0 16 ------- null}
- -t 0.56 -s 0 -d 1 -p cbr -e 210 -c 0 -i 16 -a 0 -x {0.0 5.0 16 ------- null}
h -t 0.56 -s 0 -d 1 -p cbr -e 210 -c 0 -i 16 -a 0 -x {0.0 5.0 -1 ------- null}
r -t 0.560258 -s 3 -d 5 -p cbr -e 210 -c 0 -i 15 -a 0 -x {0.0 5.0 15 ------- null}
r -t 0.561336000000001 -s 0 -d 1 -p cbr -e 210 -c 0 -i 16 -a 0 -x {0.0 5.0 16 ------- null}
+ -t 0.561336000000001 -s 1 -d 3 -p cbr -e 210 -c 0 -i 16 -a 0 -x {0.0 5.0 16 ------- null}
- -t 0.561336000000001 -s 1 -d 3 -p cbr -e 210 -c 0 -i 16 -a 0 -x {0.0 5.0 16 ------- null}
h -t 0.561336000000001 -s 1 -d 3 -p cbr -e 210 -c 0 -i 16 -a 0 -x {0.0 5.0 -1 ------- null}
r -t 0.562672000000001 -s 1 -d 3 -p cbr -e 210 -c 0 -i 16 -a 0 -x {0.0 5.0 16 ------- null}
+ -t 0.562672000000001 -s 3 -d 5 -p cbr -e 210 -c 0 -i 16 -a 0 -x {0.0 5.0 16 ------- null}
- -t 0.562672000000001 -s 3 -d 5 -p cbr -e 210 -c 0 -i 16 -a 0 -x {0.0 5.0 16 ------- null}
h -t 0.562672000000001 -s 3 -d 5 -p cbr -e 210 -c 0 -i 16 -a 0 -x {0.0 5.0 -1 ------- null}
+ -t 0.563750000000001 -s 0 -d 1 -p cbr -e 210 -c 0 -i 17 -a 0 -x {0.0 5.0 17 ------- null}
- -t 0.563750000000001 -s 0 -d 1 -p cbr -e 210 -c 0 -i 17 -a 0 -x {0.0 5.0 17 ------- null}
h -t 0.563750000000001 -s 0 -d 1 -p cbr -e 210 -c 0 -i 17 -a 0 -x {0.0 5.0 -1 ------- null}
r -t 0.564008000000001 -s 3 -d 5 -p cbr -e 210 -c 0 -i 16 -a 0 -x {0.0 5.0 16 ------- null}
r -t 0.565086000000001 -s 0 -d 1 -p cbr -e 210 -c 0 -i 17 -a 0 -x {0.0 5.0 17 ------- null}
+ -t 0.565086000000001 -s 1 -d 3 -p cbr -e 210 -c 0 -i 17 -a 0 -x {0.0 5.0 17 ------- null}
- -t 0.565086000000001 -s 1 -d 3 -p cbr -e 210 -c 0 -i 17 -a 0 -x {0.0 5.0 17 ------- null}
h -t 0.565086000000001 -s 1 -d 3 -p cbr -e 210 -c 0 -i 17 -a 0 -x {0.0 5.0 -1 ------- null}
r -t 0.566422000000001 -s 1 -d 3 -p cbr -e 210 -c 0 -i 17 -a 0 -x {0.0 5.0 17 ------- null}
+ -t 0.566422000000001 -s 3 -d 5 -p cbr -e 210 -c 0 -i 17 -a 0 -x {0.0 5.0 17 ------- null}
- -t 0.566422000000001 -s 3 -d 5 -p cbr -e 210 -c 0 -i 17 -a 0 -x {0.0 5.0 17 ------- null}
h -t 0.566422000000001 -s 3 -d 5 -p cbr -e 210 -c 0 -i 17 -a 0 -x {0.0 5.0 -1 ------- null}
+ -t 0.567500000000001 -s 0 -d 1 -p cbr -e 210 -c 0 -i 18 -a 0 -x {0.0 5.0 18 ------- null}
- -t 0.567500000000001 -s 0 -d 1 -p cbr -e 210 -c 0 -i 18 -a 0 -x {0.0 5.0 18 ------- null}
h -t 0.567500000000001 -s 0 -d 1 -p cbr -e 210 -c 0 -i 18 -a 0 -x {0.0 5.0 -1 ------- null}
r -t 0.567758000000001 -s 3 -d 5 -p cbr -e 210 -c 0 -i 17 -a 0 -x {0.0 5.0 17 ------- null}
r -t 0.568836000000001 -s 0 -d 1 -p cbr -e 210 -c 0 -i 18 -a 0 -x {0.0 5.0 18 ------- null}
+ -t 0.568836000000001 -s 1 -d 3 -p cbr -e 210 -c 0 -i 18 -a 0 -x {0.0 5.0 18 ------- null}
- -t 0.568836000000001 -s 1 -d 3 -p cbr -e 210 -c 0 -i 18 -a 0 -x {0.0 5.0 18 ------- null}
h -t 0.568836000000001 -s 1 -d 3 -p cbr -e 210 -c 0 -i 18 -a 0 -x {0.0 5.0 -1 ------- null}
r -t 0.570172000000001 -s 1 -d 3 -p cbr -e 210 -c 0 -i 18 -a 0 -x {0.0 5.0 18 ------- null}
+ -t 0.570172000000001 -s 3 -d 5 -p cbr -e 210 -c 0 -i 18 -a 0 -x {0.0 5.0 18 ------- null}
- -t 0.570172000000001 -s 3 -d 5 -p cbr -e 210 -c 0 -i 18 -a 0 -x {0.0 5.0 18 ------- null}
h -t 0.570172000000001 -s 3 -d 5 -p cbr -e 210 -c 0 -i 18 -a 0 -x {0.0 5.0 -1 ------- null}
+ -t 0.571250000000001 -s 0 -d 1 -p cbr -e 210 -c 0 -i 19 -a 0 -x {0.0 5.0 19 ------- null}
- -t 0.571250000000001 -s 0 -d 1 -p cbr -e 210 -c 0 -i 19 -a 0 -x {0.0 5.0 19 ------- null}
h -t 0.571250000000001 -s 0 -d 1 -p cbr -e 210 -c 0 -i 19 -a 0 -x {0.0 5.0 -1 ------- null}
r -t 0.571508000000001 -s 3 -d 5 -p cbr -e 210 -c 0 -i 18 -a 0 -x {0.0 5.0 18 ------- null}
r -t 0.572586000000001 -s 0 -d 1 -p cbr -e 210 -c 0 -i 19 -a 0 -x {0.0 5.0 19 ------- null}
+ -t 0.572586000000001 -s 1 -d 3 -p cbr -e 210 -c 0 -i 19 -a 0 -x {0.0 5.0 19 ------- null}
- -t 0.572586000000001 -s 1 -d 3 -p cbr -e 210 -c 0 -i 19 -a 0 -x {0.0 5.0 19 ------- null}
h -t 0.572586000000001 -s 1 -d 3 -p cbr -e 210 -c 0 -i 19 -a 0 -x {0.0 5.0 -1 ------- null}
r -t 0.573922000000001 -s 1 -d 3 -p cbr -e 210 -c 0 -i 19 -a 0 -x {0.0 5.0 19 ------- null}
+ -t 0.573922000000001 -s 3 -d 5 -p cbr -e 210 -c 0 -i 19 -a 0 -x {0.0 5.0 19 ------- null}
- -t 0.573922000000001 -s 3 -d 5 -p cbr -e 210 -c 0 -i 19 -a 0 -x {0.0 5.0 19 ------- null}
h -t 0.573922000000001 -s 3 -d 5 -p cbr -e 210 -c 0 -i 19 -a 0 -x {0.0 5.0 -1 ------- null}
+ -t 0.575000000000001 -s 0 -d 1 -p cbr -e 210 -c 0 -i 20 -a 0 -x {0.0 5.0 20 ------- null}
- -t 0.575000000000001 -s 0 -d 1 -p cbr -e 210 -c 0 -i 20 -a 0 -x {0.0 5.0 20 ------- null}
h -t 0.575000000000001 -s 0 -d 1 -p cbr -e 210 -c 0 -i 20 -a 0 -x {0.0 5.0 -1 ------- null}
r -t 0.575258000000001 -s 3 -d 5 -p cbr -e 210 -c 0 -i 19 -a 0 -x {0.0 5.0 19 ------- null}
r -t 0.576336000000001 -s 0 -d 1 -p cbr -e 210 -c 0 -i 20 -a 0 -x {0.0 5.0 20 ------- null}
+ -t 0.576336000000001 -s 1 -d 3 -p cbr -e 210 -c 0 -i 20 -a 0 -x {0.0 5.0 20 ------- null}
- -t 0.576336000000001 -s 1 -d 3 -p cbr -e 210 -c 0 -i 20 -a 0 -x {0.0 5.0 20 ------- null}
h -t 0.576336000000001 -s 1 -d 3 -p cbr -e 210 -c 0 -i 20 -a 0 -x {0.0 5.0 -1 ------- null}
r -t 0.577672000000001 -s 1 -d 3 -p cbr -e 210 -c 0 -i 20 -a 0 -x {0.0 5.0 20 ------- null}
+ -t 0.577672000000001 -s 3 -d 5 -p cbr -e 210 -c 0 -i 20 -a 0 -x {0.0 5.0 20 ------- null}
- -t 0.577672000000001 -s 3 -d 5 -p cbr -e 210 -c 0 -i 20 -a 0 -x {0.0 5.0 20 ------- null}
h -t 0.577672000000001 -s 3 -d 5 -p cbr -e 210 -c 0 -i 20 -a 0 -x {0.0 5.0 -1 ------- null}
+ -t 0.578750000000001 -s 0 -d 1 -p cbr -e 210 -c 0 -i 21 -a 0 -x {0.0 5.0 21 ------- null}
- -t 0.578750000000001 -s 0 -d 1 -p cbr -e 210 -c 0 -i 21 -a 0 -x {0.0 5.0 21 ------- null}
h -t 0.578750000000001 -s 0 -d 1 -p cbr -e 210 -c 0 -i 21 -a 0 -x {0.0 5.0 -1 ------- null}
r -t 0.579008000000001 -s 3 -d 5 -p cbr -e 210 -c 0 -i 20 -a 0 -x {0.0 5.0 20 ------- null}
r -t 0.580086000000001 -s 0 -d 1 -p cbr -e 210 -c 0 -i 21 -a 0 -x {0.0 5.0 21 ------- null}
+ -t 0.580086000000001 -s 1 -d 3 -p cbr -e 210 -c 0 -i 21 -a 0 -x {0.0 5.0 21 ------- null}
- -t 0.580086000000001 -s 1 -d 3 -p cbr -e 210 -c 0 -i 21 -a 0 -x {0.0 5.0 21 ------- null}
h -t 0.580086000000001 -s 1 -d 3 -p cbr -e 210 -c 0 -i 21 -a 0 -x {0.0 5.0 -1 ------- null}
r -t 0.581422000000001 -s 1 -d 3 -p cbr -e 210 -c 0 -i 21 -a 0 -x {0.0 5.0 21 ------- null}
+ -t 0.581422000000001 -s 3 -d 5 -p cbr -e 210 -c 0 -i 21 -a 0 -x {0.0 5.0 21 ------- null}
- -t 0.581422000000001 -s 3 -d 5 -p cbr -e 210 -c 0 -i 21 -a 0 -x {0.0 5.0 21 ------- null}
h -t 0.581422000000001 -s 3 -d 5 -p cbr -e 210 -c 0 -i 21 -a 0 -x {0.0 5.0 -1 ------- null}
+ -t 0.582500000000001 -s 0 -d 1 -p cbr -e 210 -c 0 -i 22 -a 0 -x {0.0 5.0 22 ------- null}
- -t 0.582500000000001 -s 0 -d 1 -p cbr -e 210 -c 0 -i 22 -a 0 -x {0.0 5.0 22 ------- null}
h -t 0.582500000000001 -s 0 -d 1 -p cbr -e 210 -c 0 -i 22 -a 0 -x {0.0 5.0 -1 ------- null}
r -t 0.582758000000001 -s 3 -d 5 -p cbr -e 210 -c 0 -i 21 -a 0 -x {0.0 5.0 21 ------- null}
r -t 0.583836000000001 -s 0 -d 1 -p cbr -e 210 -c 0 -i 22 -a 0 -x {0.0 5.0 22 ------- null}
+ -t 0.583836000000001 -s 1 -d 3 -p cbr -e 210 -c 0 -i 22 -a 0 -x {0.0 5.0 22 ------- null}
- -t 0.583836000000001 -s 1 -d 3 -p cbr -e 210 -c 0 -i 22 -a 0 -x {0.0 5.0 22 ------- null}
h -t 0.583836000000001 -s 1 -d 3 -p cbr -e 210 -c 0 -i 22 -a 0 -x {0.0 5.0 -1 ------- null}
r -t 0.585172000000001 -s 1 -d 3 -p cbr -e 210 -c 0 -i 22 -a 0 -x {0.0 5.0 22 ------- null}
+ -t 0.585172000000001 -s 3 -d 5 -p cbr -e 210 -c 0 -i 22 -a 0 -x {0.0 5.0 22 ------- null}
- -t 0.585172000000001 -s 3 -d 5 -p cbr -e 210 -c 0 -i 22 -a 0 -x {0.0 5.0 22 ------- null}
h -t 0.585172000000001 -s 3 -d 5 -p cbr -e 210 -c 0 -i 22 -a 0 -x {0.0 5.0 -1 ------- null}
+ -t 0.586250000000001 -s 0 -d 1 -p cbr -e 210 -c 0 -i 23 -a 0 -x {0.0 5.0 23 ------- null}
- -t 0.586250000000001 -s 0 -d 1 -p cbr -e 210 -c 0 -i 23 -a 0 -x {0.0 5.0 23 ------- null}
h -t 0.586250000000001 -s 0 -d 1 -p cbr -e 210 -c 0 -i 23 -a 0 -x {0.0 5.0 -1 ------- null}
r -t 0.586508000000001 -s 3 -d 5 -p cbr -e 210 -c 0 -i 22 -a 0 -x {0.0 5.0 22 ------- null}
r -t 0.587586000000001 -s 0 -d 1 -p cbr -e 210 -c 0 -i 23 -a 0 -x {0.0 5.0 23 ------- null}
+ -t 0.587586000000001 -s 1 -d 3 -p cbr -e 210 -c 0 -i 23 -a 0 -x {0.0 5.0 23 ------- null}
- -t 0.587586000000001 -s 1 -d 3 -p cbr -e 210 -c 0 -i 23 -a 0 -x {0.0 5.0 23 ------- null}
h -t 0.587586000000001 -s 1 -d 3 -p cbr -e 210 -c 0 -i 23 -a 0 -x {0.0 5.0 -1 ------- null}
r -t 0.588922000000001 -s 1 -d 3 -p cbr -e 210 -c 0 -i 23 -a 0 -x {0.0 5.0 23 ------- null}
+ -t 0.588922000000001 -s 3 -d 5 -p cbr -e 210 -c 0 -i 23 -a 0 -x {0.0 5.0 23 ------- null}
- -t 0.588922000000001 -s 3 -d 5 -p cbr -e 210 -c 0 -i 23 -a 0 -x {0.0 5.0 23 ------- null}
h -t 0.588922000000001 -s 3 -d 5 -p cbr -e 210 -c 0 -i 23 -a 0 -x {0.0 5.0 -1 ------- null}
+ -t 0.590000000000001 -s 0 -d 1 -p cbr -e 210 -c 0 -i 24 -a 0 -x {0.0 5.0 24 ------- null}
- -t 0.590000000000001 -s 0 -d 1 -p cbr -e 210 -c 0 -i 24 -a 0 -x {0.0 5.0 24 ------- null}
h -t 0.590000000000001 -s 0 -d 1 -p cbr -e 210 -c 0 -i 24 -a 0 -x {0.0 5.0 -1 ------- null}
r -t 0.590258000000001 -s 3 -d 5 -p cbr -e 210 -c 0 -i 23 -a 0 -x {0.0 5.0 23 ------- null}
r -t 0.591336000000001 -s 0 -d 1 -p cbr -e 210 -c 0 -i 24 -a 0 -x {0.0 5.0 24 ------- null}
+ -t 0.591336000000001 -s 1 -d 3 -p cbr -e 210 -c 0 -i 24 -a 0 -x {0.0 5.0 24 ------- null}
- -t 0.591336000000001 -s 1 -d 3 -p cbr -e 210 -c 0 -i 24 -a 0 -x {0.0 5.0 24 ------- null}
h -t 0.591336000000001 -s 1 -d 3 -p cbr -e 210 -c 0 -i 24 -a 0 -x {0.0 5.0 -1 ------- null}
r -t 0.592672000000001 -s 1 -d 3 -p cbr -e 210 -c 0 -i 24 -a 0 -x {0.0 5.0 24 ------- null}
+ -t 0.592672000000001 -s 3 -d 5 -p cbr -e 210 -c 0 -i 24 -a 0 -x {0.0 5.0 24 ------- null}
- -t 0.592672000000001 -s 3 -d 5 -p cbr -e 210 -c 0 -i 24 -a 0 -x {0.0 5.0 24 ------- null}
h -t 0.592672000000001 -s 3 -d 5 -p cbr -e 210 -c 0 -i 24 -a 0 -x {0.0 5.0 -1 ------- null}
+ -t 0.593750000000001 -s 0 -d 1 -p cbr -e 210 -c 0 -i 25 -a 0 -x {0.0 5.0 25 ------- null}
- -t 0.593750000000001 -s 0 -d 1 -p cbr -e 210 -c 0 -i 25 -a 0 -x {0.0 5.0 25 ------- null}
h -t 0.593750000000001 -s 0 -d 1 -p cbr -e 210 -c 0 -i 25 -a 0 -x {0.0 5.0 -1 ------- null}
r -t 0.594008000000001 -s 3 -d 5 -p cbr -e 210 -c 0 -i 24 -a 0 -x {0.0 5.0 24 ------- null}
r -t 0.595086000000001 -s 0 -d 1 -p cbr -e 210 -c 0 -i 25 -a 0 -x {0.0 5.0 25 ------- null}
+ -t 0.595086000000001 -s 1 -d 3 -p cbr -e 210 -c 0 -i 25 -a 0 -x {0.0 5.0 25 ------- null}
- -t 0.595086000000001 -s 1 -d 3 -p cbr -e 210 -c 0 -i 25 -a 0 -x {0.0 5.0 25 ------- null}
h -t 0.595086000000001 -s 1 -d 3 -p cbr -e 210 -c 0 -i 25 -a 0 -x {0.0 5.0 -1 ------- null}
r -t 0.596422000000001 -s 1 -d 3 -p cbr -e 210 -c 0 -i 25 -a 0 -x {0.0 5.0 25 ------- null}
+ -t 0.596422000000001 -s 3 -d 5 -p cbr -e 210 -c 0 -i 25 -a 0 -x {0.0 5.0 25 ------- null}
- -t 0.596422000000001 -s 3 -d 5 -p cbr -e 210 -c 0 -i 25 -a 0 -x {0.0 5.0 25 ------- null}
h -t 0.596422000000001 -s 3 -d 5 -p cbr -e 210 -c 0 -i 25 -a 0 -x {0.0 5.0 -1 ------- null}
+ -t 0.597500000000001 -s 0 -d 1 -p cbr -e 210 -c 0 -i 26 -a 0 -x {0.0 5.0 26 ------- null}
- -t 0.597500000000001 -s 0 -d 1 -p cbr -e 210 -c 0 -i 26 -a 0 -x {0.0 5.0 26 ------- null}
h -t 0.597500000000001 -s 0 -d 1 -p cbr -e 210 -c 0 -i 26 -a 0 -x {0.0 5.0 -1 ------- null}
r -t 0.597758000000001 -s 3 -d 5 -p cbr -e 210 -c 0 -i 25 -a 0 -x {0.0 5.0 25 ------- null}
r -t 0.598836000000001 -s 0 -d 1 -p cbr -e 210 -c 0 -i 26 -a 0 -x {0.0 5.0 26 ------- null}
+ -t 0.598836000000001 -s 1 -d 3 -p cbr -e 210 -c 0 -i 26 -a 0 -x {0.0 5.0 26 ------- null}
- -t 0.598836000000001 -s 1 -d 3 -p cbr -e 210 -c 0 -i 26 -a 0 -x {0.0 5.0 26 ------- null}
h -t 0.598836000000001 -s 1 -d 3 -p cbr -e 210 -c 0 -i 26 -a 0 -x {0.0 5.0 -1 ------- null}
r -t 0.600172000000001 -s 1 -d 3 -p cbr -e 210 -c 0 -i 26 -a 0 -x {0.0 5.0 26 ------- null}
+ -t 0.600172000000001 -s 3 -d 5 -p cbr -e 210 -c 0 -i 26 -a 0 -x {0.0 5.0 26 ------- null}
- -t 0.600172000000001 -s 3 -d 5 -p cbr -e 210 -c 0 -i 26 -a 0 -x {0.0 5.0 26 ------- null}
h -t 0.600172000000001 -s 3 -d 5 -p cbr -e 210 -c 0 -i 26 -a 0 -x {0.0 5.0 -1 ------- null}
+ -t 0.601250000000001 -s 0 -d 1 -p cbr -e 210 -c 0 -i 27 -a 0 -x {0.0 5.0 27 ------- null}
- -t 0.601250000000001 -s 0 -d 1 -p cbr -e 210 -c 0 -i 27 -a 0 -x {0.0 5.0 27 ------- null}
h -t 0.601250000000001 -s 0 -d 1 -p cbr -e 210 -c 0 -i 27 -a 0 -x {0.0 5.0 -1 ------- null}
r -t 0.601508000000001 -s 3 -d 5 -p cbr -e 210 -c 0 -i 26 -a 0 -x {0.0 5.0 26 ------- null}
r -t 0.602586000000001 -s 0 -d 1 -p cbr -e 210 -c 0 -i 27 -a 0 -x {0.0 5.0 27 ------- null}
+ -t 0.602586000000001 -s 1 -d 3 -p cbr -e 210 -c 0 -i 27 -a 0 -x {0.0 5.0 27 ------- null}
- -t 0.602586000000001 -s 1 -d 3 -p cbr -e 210 -c 0 -i 27 -a 0 -x {0.0 5.0 27 ------- null}
h -t 0.602586000000001 -s 1 -d 3 -p cbr -e 210 -c 0 -i 27 -a 0 -x {0.0 5.0 -1 ------- null}
r -t 0.603922000000001 -s 1 -d 3 -p cbr -e 210 -c 0 -i 27 -a 0 -x {0.0 5.0 27 ------- null}
+ -t 0.603922000000001 -s 3 -d 5 -p cbr -e 210 -c 0 -i 27 -a 0 -x {0.0 5.0 27 ------- null}
- -t 0.603922000000001 -s 3 -d 5 -p cbr -e 210 -c 0 -i 27 -a 0 -x {0.0 5.0 27 ------- null}
h -t 0.603922000000001 -s 3 -d 5 -p cbr -e 210 -c 0 -i 27 -a 0 -x {0.0 5.0 -1 ------- null}
+ -t 0.605000000000001 -s 0 -d 1 -p cbr -e 210 -c 0 -i 28 -a 0 -x {0.0 5.0 28 ------- null}
- -t 0.605000000000001 -s 0 -d 1 -p cbr -e 210 -c 0 -i 28 -a 0 -x {0.0 5.0 28 ------- null}
h -t 0.605000000000001 -s 0 -d 1 -p cbr -e 210 -c 0 -i 28 -a 0 -x {0.0 5.0 -1 ------- null}
r -t 0.605258000000001 -s 3 -d 5 -p cbr -e 210 -c 0 -i 27 -a 0 -x {0.0 5.0 27 ------- null}