+ 0.5 0 1 cbr 210 ------- 0 0.0 5.0 0 0
- 0.5 0 1 cbr 210 ------- 0 0.0 5.0 0 0
r 0.501336 0 1 cbr 210 ------- 0 0.0 5.0 0 0
+ 0.501336 1 3 cbr 210 ------- 0 0.0 5.0 0 0
- 0.501336 1 3 cbr 210 ------- 0 0.0 5.0 0 0
r 0.502672 1 3 cbr 210 ------- 0 0.0 5.0 0 0
+ 0.502672 3 5 cbr 210 ------- 0 0.0 5.0 0 0
- 0.502672 3 5 cbr 210 ------- 0 0.0 5.0 0 0
+ 0.50375 0 1 cbr 210 ------- 0 0.0 5.0 1 1
- 0.50375 0 1 cbr 210 ------- 0 0.0 5.0 1 1
r 0.504008 3 5 cbr 210 ------- 0 0.0 5.0 0 0
r 0.505086 0 1 cbr 210 ------- 0 0.0 5.0 1 1
+ 0.505086 1 3 cbr 210 ------- 0 0.0 5.0 1 1
- 0.505086 1 3 cbr 210 ------- 0 0.0 5.0 1 1
r 0.506422 1 3 cbr 210 ------- 0 0.0 5.0 1 1
+ 0.506422 3 5 cbr 210 ------- 0 0.0 5.0 1 1
- 0.506422 3 5 cbr 210 ------- 0 0.0 5.0 1 1
+ 0.5075 0 1 cbr 210 ------- 0 0.0 5.0 2 2
- 0.5075 0 1 cbr 210 ------- 0 0.0 5.0 2 2
r 0.507758 3 5 cbr 210 ------- 0 0.0 5.0 1 1
r 0.508836 0 1 cbr 210 ------- 0 0.0 5.0 2 2
+ 0.508836 1 3 cbr 210 ------- 0 0.0 5.0 2 2
- 0.508836 1 3 cbr 210 ------- 0 0.0 5.0 2 2
r 0.510172 1 3 cbr 210 ------- 0 0.0 5.0 2 2
+ 0.510172 3 5 cbr 210 ------- 0 0.0 5.0 2 2
- 0.510172 3 5 cbr 210 ------- 0 0.0 5.0 2 2
+ 0.51125 0 1 cbr 210 ------- 0 0.0 5.0 3 3
- 0.51125 0 1 cbr 210 ------- 0 0.0 5.0 3 3
r 0.511508 3 5 cbr 210 ------- 0 0.0 5.0 2 2
r 0.512586 0 1 cbr 210 ------- 0 0.0 5.0 3 3
+ 0.512586 1 3 cbr 210 ------- 0 0.0 5.0 3 3
- 0.512586 1 3 cbr 210 ------- 0 0.0 5.0 3 3
r 0.513922 1 3 cbr 210 ------- 0 0.0 5.0 3 3
+ 0.513922 3 5 cbr 210 ------- 0 0.0 5.0 3 3
- 0.513922 3 5 cbr 210 ------- 0 0.0 5.0 3 3
+ 0.515 0 1 cbr 210 ------- 0 0.0 5.0 4 4
- 0.515 0 1 cbr 210 ------- 0 0.0 5.0 4 4
r 0.515258 3 5 cbr 210 ------- 0 0.0 5.0 3 3
r 0.516336 0 1 cbr 210 ------- 0 0.0 5.0 4 4
+ 0.516336 1 3 cbr 210 ------- 0 0.0 5.0 4 4
- 0.516336 1 3 cbr 210 ------- 0 0.0 5.0 4 4
r 0.517672 1 3 cbr 210 ------- 0 0.0 5.0 4 4
+ 0.517672 3 5 cbr 210 ------- 0 0.0 5.0 4 4
- 0.517672 3 5 cbr 210 ------- 0 0.0 5.0 4 4
+ 0.51875 0 1 cbr 210 ------- 0 0.0 5.0 5 5
- 0.51875 0 1 cbr 210 ------- 0 0.0 5.0 5 5
r 0.519008 3 5 cbr 210 ------- 0 0.0 5.0 4 4
r 0.520086 0 1 cbr 210 ------- 0 0.0 5.0 5 5
+ 0.520086 1 3 cbr 210 ------- 0 0.0 5.0 5 5
- 0.520086 1 3 cbr 210 ------- 0 0.0 5.0 5 5
r 0.521422 1 3 cbr 210 ------- 0 0.0 5.0 5 5
+ 0.521422 3 5 cbr 210 ------- 0 0.0 5.0 5 5
- 0.521422 3 5 cbr 210 ------- 0 0.0 5.0 5 5
+ 0.5225 0 1 cbr 210 ------- 0 0.0 5.0 6 6
- 0.5225 0 1 cbr 210 ------- 0 0.0 5.0 6 6
r 0.522758 3 5 cbr 210 ------- 0 0.0 5.0 5 5
r 0.523836 0 1 cbr 210 ------- 0 0.0 5.0 6 6
+ 0.523836 1 3 cbr 210 ------- 0 0.0 5.0 6 6
- 0.523836 1 3 cbr 210 ------- 0 0.0 5.0 6 6
r 0.525172 1 3 cbr 210 ------- 0 0.0 5.0 6 6
+ 0.525172 3 5 cbr 210 ------- 0 0.0 5.0 6 6
- 0.525172 3 5 cbr 210 ------- 0 0.0 5.0 6 6
+ 0.52625 0 1 cbr 210 ------- 0 0.0 5.0 7 7
- 0.52625 0 1 cbr 210 ------- 0 0.0 5.0 7 7
r 0.526508 3 5 cbr 210 ------- 0 0.0 5.0 6 6
r 0.527586 0 1 cbr 210 ------- 0 0.0 5.0 7 7
+ 0.527586 1 3 cbr 210 ------- 0 0.0 5.0 7 7
- 0.527586 1 3 cbr 210 ------- 0 0.0 5.0 7 7
r 0.528922 1 3 cbr 210 ------- 0 0.0 5.0 7 7
+ 0.528922 3 5 cbr 210 ------- 0 0.0 5.0 7 7
- 0.528922 3 5 cbr 210 ------- 0 0.0 5.0 7 7
+ 0.53 0 1 cbr 210 ------- 0 0.0 5.0 8 8
- 0.53 0 1 cbr 210 ------- 0 0.0 5.0 8 8
r 0.530258 3 5 cbr 210 ------- 0 0.0 5.0 7 7
r 0.531336 0 1 cbr 210 ------- 0 0.0 5.0 8 8
+ 0.531336 1 3 cbr 210 ------- 0 0.0 5.0 8 8
- 0.531336 1 3 cbr 210 ------- 0 0.0 5.0 8 8
r 0.532672 1 3 cbr 210 ------- 0 0.0 5.0 8 8
+ 0.532672 3 5 cbr 210 ------- 0 0.0 5.0 8 8
- 0.532672 3 5 cbr 210 ------- 0 0.0 5.0 8 8
+ 0.53375 0 1 cbr 210 ------- 0 0.0 5.0 9 9
- 0.53375 0 1 cbr 210 ------- 0 0.0 5.0 9 9
r 0.534008 3 5 cbr 210 ------- 0 0.0 5.0 8 8
r 0.535086 0 1 cbr 210 ------- 0 0.0 5.0 9 9
+ 0.535086 1 3 cbr 210 ------- 0 0.0 5.0 9 9
- 0.535086 1 3 cbr 210 ------- 0 0.0 5.0 9 9
r 0.536422 1 3 cbr 210 ------- 0 0.0 5.0 9 9
+ 0.536422 3 5 cbr 210 ------- 0 0.0 5.0 9 9
- 0.536422 3 5 cbr 210 ------- 0 0.0 5.0 9 9
+ 0.5375 0 1 cbr 210 ------- 0 0.0 5.0 10 10
- 0.5375 0 1 cbr 210 ------- 0 0.0 5.0 10 10
r 0.537758 3 5 cbr 210 ------- 0 0.0 5.0 9 9
r 0.538836 0 1 cbr 210 ------- 0 0.0 5.0 10 10
+ 0.538836 1 3 cbr 210 ------- 0 0.0 5.0 10 10
- 0.538836 1 3 cbr 210 ------- 0 0.0 5.0 10 10
r 0.540172 1 3 cbr 210 ------- 0 0.0 5.0 10 10
+ 0.540172 3 5 cbr 210 ------- 0 0.0 5.0 10 10
- 0.540172 3 5 cbr 210 ------- 0 0.0 5.0 10 10
+ 0.54125 0 1 cbr 210 ------- 0 0.0 5.0 11 11
- 0.54125 0 1 cbr 210 ------- 0 0.0 5.0 11 11
r 0.541508 3 5 cbr 210 ------- 0 0.0 5.0 10 10
r 0.542586 0 1 cbr 210 ------- 0 0.0 5.0 11 11
+ 0.542586 1 3 cbr 210 ------- 0 0.0 5.0 11 11
- 0.542586 1 3 cbr 210 ------- 0 0.0 5.0 11 11
r 0.543922 1 3 cbr 210 ------- 0 0.0 5.0 11 11
+ 0.543922 3 5 cbr 210 ------- 0 0.0 5.0 11 11
- 0.543922 3 5 cbr 210 ------- 0 0.0 5.0 11 11
+ 0.545 0 1 cbr 210 ------- 0 0.0 5.0 12 12
- 0.545 0 1 cbr 210 ------- 0 0.0 5.0 12 12
r 0.545258 3 5 cbr 210 ------- 0 0.0 5.0 11 11
r 0.546336 0 1 cbr 210 ------- 0 0.0 5.0 12 12
+ 0.546336 1 3 cbr 210 ------- 0 0.0 5.0 12 12
- 0.546336 1 3 cbr 210 ------- 0 0.0 5.0 12 12
r 0.547672 1 3 cbr 210 ------- 0 0.0 5.0 12 12
+ 0.547672 3 5 cbr 210 ------- 0 0.0 5.0 12 12
- 0.547672 3 5 cbr 210 ------- 0 0.0 5.0 12 12
+ 0.54875 0 1 cbr 210 ------- 0 0.0 5.0 13 13
- 0.54875 0 1 cbr 210 ------- 0 0.0 5.0 13 13
r 0.549008 3 5 cbr 210 ------- 0 0.0 5.0 12 12
r 0.550086 0 1 cbr 210 ------- 0 0.0 5.0 13 13
+ 0.550086 1 3 cbr 210 ------- 0 0.0 5.0 13 13
- 0.550086 1 3 cbr 210 ------- 0 0.0 5.0 13 13
r 0.551422 1 3 cbr 210 ------- 0 0.0 5.0 13 13
+ 0.551422 3 5 cbr 210 ------- 0 0.0 5.0 13 13
- 0.551422 3 5 cbr 210 ------- 0 0.0 5.0 13 13
+ 0.5525 0 1 cbr 210 ------- 0 0.0 5.0 14 14
- 0.5525 0 1 cbr 210 ------- 0 0.0 5.0 14 14
r 0.552758 3 5 cbr 210 ------- 0 0.0 5.0 13 13
r 0.553836 0 1 cbr 210 ------- 0 0.0 5.0 14 14
+ 0.553836 1 3 cbr 210 ------- 0 0.0 5.0 14 14
- 0.553836 1 3 cbr 210 ------- 0 0.0 5.0 14 14
r 0.555172 1 3 cbr 210 ------- 0 0.0 5.0 14 14
+ 0.555172 3 5 cbr 210 ------- 0 0.0 5.0 14 14
- 0.555172 3 5 cbr 210 ------- 0 0.0 5.0 14 14
+ 0.55625 0 1 cbr 210 ------- 0 0.0 5.0 15 15
- 0.55625 0 1 cbr 210 ------- 0 0.0 5.0 15 15
r 0.556508 3 5 cbr 210 ------- 0 0.0 5.0 14 14
r 0.557586 0 1 cbr 210 ------- 0 0.0 5.0 15 15
+ 0.557586 1 3 cbr 210 ------- 0 0.0 5.0 15 15
- 0.557586 1 3 cbr 210 ------- 0 0.0 5.0 15 15
r 0.558922 1 3 cbr 210 ------- 0 0.0 5.0 15 15
+ 0.558922 3 5 cbr 210 ------- 0 0.0 5.0 15 15
- 0.558922 3 5 cbr 210 ------- 0 0.0 5.0 15 15
+ 0.56 0 1 cbr 210 ------- 0 0.0 5.0 16 16
- 0.56 0 1 cbr 210 ------- 0 0.0 5.0 16 16
r 0.560258 3 5 cbr 210 ------- 0 0.0 5.0 15 15
r 0.561336 0 1 cbr 210 ------- 0 0.0 5.0 16 16
+ 0.561336 1 3 cbr 210 ------- 0 0.0 5.0 16 16
- 0.561336 1 3 cbr 210 ------- 0 0.0 5.0 16 16
r 0.562672 1 3 cbr 210 ------- 0 0.0 5.0 16 16
+ 0.562672 3 5 cbr 210 ------- 0 0.0 5.0 16 16
- 0.562672 3 5 cbr 210 ------- 0 0.0 5.0 16 16
+ 0.56375 0 1 cbr 210 ------- 0 0.0 5.0 17 17
- 0.56375 0 1 cbr 210 ------- 0 0.0 5.0 17 17
r 0.564008 3 5 cbr 210 ------- 0 0.0 5.0 16 16
r 0.565086 0 1 cbr 210 ------- 0 0.0 5.0 17 17
+ 0.565086 1 3 cbr 210 ------- 0 0.0 5.0 17 17
- 0.565086 1 3 cbr 210 ------- 0 0.0 5.0 17 17
r 0.566422 1 3 cbr 210 ------- 0 0.0 5.0 17 17
+ 0.566422 3 5 cbr 210 ------- 0 0.0 5.0 17 17
- 0.566422 3 5 cbr 210 ------- 0 0.0 5.0 17 17
+ 0.5675 0 1 cbr 210 ------- 0 0.0 5.0 18 18
- 0.5675 0 1 cbr 210 ------- 0 0.0 5.0 18 18
r 0.567758 3 5 cbr 210 ------- 0 0.0 5.0 17 17
r 0.568836 0 1 cbr 210 ------- 0 0.0 5.0 18 18
+ 0.568836 1 3 cbr 210 ------- 0 0.0 5.0 18 18
- 0.568836 1 3 cbr 210 ------- 0 0.0 5.0 18 18
r 0.570172 1 3 cbr 210 ------- 0 0.0 5.0 18 18
+ 0.570172 3 5 cbr 210 ------- 0 0.0 5.0 18 18
- 0.570172 3 5 cbr 210 ------- 0 0.0 5.0 18 18
+ 0.57125 0 1 cbr 210 ------- 0 0.0 5.0 19 19
- 0.57125 0 1 cbr 210 ------- 0 0.0 5.0 19 19
r 0.571508 3 5 cbr 210 ------- 0 0.0 5.0 18 18
r 0.572586 0 1 cbr 210 ------- 0 0.0 5.0 19 19
+ 0.572586 1 3 cbr 210 ------- 0 0.0 5.0 19 19
- 0.572586 1 3 cbr 210 ------- 0 0.0 5.0 19 19
r 0.573922 1 3 cbr 210 ------- 0 0.0 5.0 19 19
+ 0.573922 3 5 cbr 210 ------- 0 0.0 5.0 19 19
- 0.573922 3 5 cbr 210 ------- 0 0.0 5.0 19 19
+ 0.575 0 1 cbr 210 ------- 0 0.0 5.0 20 20
- 0.575 0 1 cbr 210 ------- 0 0.0 5.0 20 20
r 0.575258 3 5 cbr 210 ------- 0 0.0 5.0 19 19
r 0.576336 0 1 cbr 210 ------- 0 0.0 5.0 20 20
+ 0.576336 1 3 cbr 210 ------- 0 0.0 5.0 20 20
- 0.576336 1 3 cbr 210 ------- 0 0.0 5.0 20 20
r 0.577672 1 3 cbr 210 ------- 0 0.0 5.0 20 20
+ 0.577672 3 5 cbr 210 ------- 0 0.0 5.0 20 20
- 0.577672 3 5 cbr 210 ------- 0 0.0 5.0 20 20
+ 0.57875 0 1 cbr 210 ------- 0 0.0 5.0 21 21
- 0.57875 0 1 cbr 210 ------- 0 0.0 5.0 21 21
r 0.579008 3 5 cbr 210 ------- 0 0.0 5.0 20 20
r 0.580086 0 1 cbr 210 ------- 0 0.0 5.0 21 21
+ 0.580086 1 3 cbr 210 ------- 0 0.0 5.0 21 21
- 0.580086 1 3 cbr 210 ------- 0 0.0 5.0 21 21
r 0.581422 1 3 cbr 210 ------- 0 0.0 5.0 21 21
+ 0.581422 3 5 cbr 210 ------- 0 0.0 5.0 21 21
- 0.581422 3 5 cbr 210 ------- 0 0.0 5.0 21 21
+ 0.5825 0 1 cbr 210 ------- 0 0.0 5.0 22 22
- 0.5825 0 1 cbr 210 ------- 0 0.0 5.0 22 22
r 0.582758 3 5 cbr 210 ------- 0 0.0 5.0 21 21
r 0.583836 0 1 cbr 210 ------- 0 0.0 5.0 22 22
+ 0.583836 1 3 cbr 210 ------- 0 0.0 5.0 22 22
- 0.583836 1 3 cbr 210 ------- 0 0.0 5.0 22 22
r 0.585172 1 3 cbr 210 ------- 0 0.0 5.0 22 22
+ 0.585172 3 5 cbr 210 ------- 0 0.0 5.0 22 22
- 0.585172 3 5 cbr 210 ------- 0 0.0 5.0 22 22
+ 0.58625 0 1 cbr 210 ------- 0 0.0 5.0 23 23
- 0.58625 0 1 cbr 210 ------- 0 0.0 5.0 23 23
r 0.586508 3 5 cbr 210 ------- 0 0.0 5.0 22 22
r 0.587586 0 1 cbr 210 ------- 0 0.0 5.0 23 23
+ 0.587586 1 3 cbr 210 ------- 0 0.0 5.0 23 23
- 0.587586 1 3 cbr 210 ------- 0 0.0 5.0 23 23
r 0.588922 1 3 cbr 210 ------- 0 0.0 5.0 23 23
+ 0.588922 3 5 cbr 210 ------- 0 0.0 5.0 23 23
- 0.588922 3 5 cbr 210 ------- 0 0.0 5.0 23 23
+ 0.59 0 1 cbr 210 ------- 0 0.0 5.0 24 24
- 0.59 0 1 cbr 210 ------- 0 0.0 5.0 24 24
r 0.590258 3 5 cbr 210 ------- 0 0.0 5.0 23 23
r 0.591336 0 1 cbr 210 ------- 0 0.0 5.0 24 24
+ 0.591336 1 3 cbr 210 ------- 0 0.0 5.0 24 24
- 0.591336 1 3 cbr 210 ------- 0 0.0 5.0 24 24
r 0.592672 1 3 cbr 210 ------- 0 0.0 5.0 24 24
+ 0.592672 3 5 cbr 210 ------- 0 0.0 5.0 24 24
- 0.592672 3 5 cbr 210 ------- 0 0.0 5.0 24 24
+ 0.59375 0 1 cbr 210 ------- 0 0.0 5.0 25 25
- 0.59375 0 1 cbr 210 ------- 0 0.0 5.0 25 25
r 0.594008 3 5 cbr 210 ------- 0 0.0 5.0 24 24
r 0.595086 0 1 cbr 210 ------- 0 0.0 5.0 25 25
+ 0.595086 1 3 cbr 210 ------- 0 0.0 5.0 25 25
- 0.595086 1 3 cbr 210 ------- 0 0.0 5.0 25 25
r 0.596422 1 3 cbr 210 ------- 0 0.0 5.0 25 25
+ 0.596422 3 5 cbr 210 ------- 0 0.0 5.0 25 25
- 0.596422 3 5 cbr 210 ------- 0 0.0 5.0 25 25
+ 0.5975 0 1 cbr 210 ------- 0 0.0 5.0 26 26
- 0.5975 0 1 cbr 210 ------- 0 0.0 5.0 26 26
r 0.597758 3 5 cbr 210 ------- 0 0.0 5.0 25 25
r 0.598836 0 1 cbr 210 ------- 0 0.0 5.0 26 26
+ 0.598836 1 3 cbr 210 ------- 0 0.0 5.0 26 26
- 0.598836 1 3 cbr 210 ------- 0 0.0 5.0 26 26
r 0.600172 1 3 cbr 210 ------- 0 0.0 5.0 26 26
+ 0.600172 3 5 cbr 210 ------- 0 0.0 5.0 26 26
- 0.600172 3 5 cbr 210 ------- 0 0.0 5.0 26 26
+ 0.60125 0 1 cbr 210 ------- 0 0.0 5.0 27 27
- 0.60125 0 1 cbr 210 ------- 0 0.0 5.0 27 27
r 0.601508 3 5 cbr 210 ------- 0 0.0 5.0 26 26
r 0.602586 0 1 cbr 210 ------- 0 0.0 5.0 27 27
+ 0.602586 1 3 cbr 210 ------- 0 0.0 5.0 27 27
- 0.602586 1 3 cbr 210 ------- 0 0.0 5.0 27 27
r 0.603922 1 3 cbr 210 ------- 0 0.0 5.0 27 27
+ 0.603922 3 5 cbr 210 ------- 0 0.0 5.0 27 27
- 0.603922 3 5 cbr 210 ------- 0 0.0 5.0 27 27
+ 0.605 0 1 cbr 210 ------- 0 0.0 5.0 28 28
- 0.605 0 1 cbr 210 ------- 0 0.0 5.0 28 28
r 0.605258 3 5 cbr 210 ------- 0 0.0 5.0 27 27
r 0.606336 0 1 cbr 210 ------- 0 0.0 5.0 28 28
+ 0.606336 1 3 cbr 210 ------- 0 0.0 5.0 28 28
- 0.606336 1 3 cbr 210 ------- 0 0.0 5.0 28 28
r 0.607672 1 3 cbr 210 ------- 0 0.0 5.0 28 28
+ 0.607672 3 5 cbr 210 ------- 0 0.0 5.0 28 28
- 0.607672 3 5 cbr 210 ------- 0 0.0 5.0 28 28
+ 0.60875 0 1 cbr 210 ------- 0 0.0 5.0 29 29
- 0.60875 0 1 cbr 210 ------- 0 0.0 5.0 29 29
r 0.609008 3 5 cbr 210 ------- 0 0.0 5.0 28 28
r 0.610086 0 1 cbr 210 ------- 0 0.0 5.0 29 29
+ 0.610086 1 3 cbr 210 ------- 0 0.0 5.0 29 29
- 0.610086 1 3 cbr 210 ------- 0 0.0 5.0 29 29
r 0.611422 1 3 cbr 210 ------- 0 0.0 5.0 29 29
+ 0.611422 3 5 cbr 210 ------- 0 0.0 5.0 29 29
- 0.611422 3 5 cbr 210 ------- 0 0.0 5.0 29 29
+ 0.6125 0 1 cbr 210 ------- 0 0.0 5.0 30 30
- 0.6125 0 1 cbr 210 ------- 0 0.0 5.0 30 30
r 0.612758 3 5 cbr 210 ------- 0 0.0 5.0 29 29
r 0.613836 0 1 cbr 210 ------- 0 0.0 5.0 30 30
+ 0.613836 1 3 cbr 210 ------- 0 0.0 5.0 30 30
- 0.613836 1 3 cbr 210 ------- 0 0.0 5.0 30 30
r 0.615172 1 3 cbr 210 ------- 0 0.0 5.0 30 30
+ 0.615172 3 5 cbr 210 ------- 0 0.0 5.0 30 30
- 0.615172 3 5 cbr 210 ------- 0 0.0 5.0 30 30
+ 0.61625 0 1 cbr 210 ------- 0 0.0 5.0 31 31
- 0.61625 0 1 cbr 210 ------- 0 0.0 5.0 31 31
r 0.616508 3 5 cbr 210 ------- 0 0.0 5.0 30 30
r 0.617586 0 1 cbr 210 ------- 0 0.0 5.0 31 31
+ 0.617586 1 3 cbr 210 ------- 0 0.0 5.0 31 31
- 0.617586 1 3 cbr 210 ------- 0 0.0 5.0 31 31
r 0.618922 1 3 cbr 210 ------- 0 0.0 5.0 31 31
+ 0.618922 3 5 cbr 210 ------- 0 0.0 5.0 31 31
- 0.618922 3 5 cbr 210 ------- 0 0.0 5.0 31 31
+ 0.62 0 1 cbr 210 ------- 0 0.0 5.0 32 32
- 0.62 0 1 cbr 210 ------- 0 0.0 5.0 32 32
r 0.620258 3 5 cbr 210 ------- 0 0.0 5.0 31 31
r 0.621336 0 1 cbr 210 ------- 0 0.0 5.0 32 32
+ 0.621336 1 3 cbr 210 ------- 0 0.0 5.0 32 32
- 0.621336 1 3 cbr 210 ------- 0 0.0 5.0 32 32
r 0.622672 1 3 cbr 210 ------- 0 0.0 5.0 32 32
+ 0.622672 3 5 cbr 210 ------- 0 0.0 5.0 32 32
- 0.622672 3 5 cbr 210 ------- 0 0.0 5.0 32 32
+ 0.62375 0 1 cbr 210 ------- 0 0.0 5.0 33 33
- 0.62375 0 1 cbr 210 ------- 0 0.0 5.0 33 33
r 0.624008 3 5 cbr 210 ------- 0 0.0 5.0 32 32
r 0.625086 0 1 cbr 210 ------- 0 0.0 5.0 33 33
+ 0.625086 1 3 cbr 210 ------- 0 0.0 5.0 33 33
- 0.625086 1 3 cbr 210 ------- 0 0.0 5.0 33 33
r 0.626422 1 3 cbr 210 ------- 0 0.0 5.0 33 33
+ 0.626422 3 5 cbr 210 ------- 0 0.0 5.0 33 33
- 0.626422 3 5 cbr 210 ------- 0 0.0 5.0 33 33
+ 0.6275 0 1 cbr 210 ------- 0 0.0 5.0 34 34
- 0.6275 0 1 cbr 210 ------- 0 0.0 5.0 34 34
r 0.627758 3 5 cbr 210 ------- 0 0.0 5.0 33 33
r 0.628836 0 1 cbr 210 ------- 0 0.0 5.0 34 34
+ 0.628836 1 3 cbr 210 ------- 0 0.0 5.0 34 34
- 0.628836 1 3 cbr 210 ------- 0 0.0 5.0 34 34
r 0.630172 1 3 cbr 210 ------- 0 0.0 5.0 34 34
+ 0.630172 3 5 cbr 210 ------- 0 0.0 5.0 34 34
- 0.630172 3 5 cbr 210 ------- 0 0.0 5.0 34 34
+ 0.63125 0 1 cbr 210 ------- 0 0.0 5.0 35 35
- 0.63125 0 1 cbr 210 ------- 0 0.0 5.0 35 35
r 0.631508 3 5 cbr 210 ------- 0 0.0 5.0 34 34
r 0.632586 0 1 cbr 210 ------- 0 0.0 5.0 35 35
+ 0.632586 1 3 cbr 210 ------- 0 0.0 5.0 35 35
- 0.632586 1 3 cbr 210 ------- 0 0.0 5.0 35 35
r 0.633922 1 3 cbr 210 ------- 0 0.0 5.0 35 35
+ 0.633922 3 5 cbr 210 ------- 0 0.0 5.0 35 35
- 0.633922 3 5 cbr 210 ------- 0 0.0 5.0 35 35
+ 0.635 0 1 cbr 210 ------- 0 0.0 5.0 36 36
- 0.635 0 1 cbr 210 ------- 0 0.0 5.0 36 36
r 0.635258 3 5 cbr 210 ------- 0 0.0 5.0 35 35
r 0.636336 0 1 cbr 210 ------- 0 0.0 5.0 36 36
+ 0.636336 1 3 cbr 210 ------- 0 0.0 5.0 36 36
- 0.636336 1 3 cbr 210 ------- 0 0.0 5.0 36 36
r 0.637672 1 3 cbr 210 ------- 0 0.0 5.0 36 36
+ 0.637672 3 5 cbr 210 ------- 0 0.0 5.0 36 36
- 0.637672 3 5 cbr 210 ------- 0 0.0 5.0 36 36
+ 0.63875 0 1 cbr 210 ------- 0 0.0 5.0 37 37
- 0.63875 0 1 cbr 210 ------- 0 0.0 5.0 37 37
r 0.639008 3 5 cbr 210 ------- 0 0.0 5.0 36 36
r 0.640086 0 1 cbr 210 ------- 0 0.0 5.0 37 37
+ 0.640086 1 3 cbr 210 ------- 0 0.0 5.0 37 37
- 0.640086 1 3 cbr 210 ------- 0 0.0 5.0 37 37
r 0.641422 1 3 cbr 210 ------- 0 0.0 5.0 37 37
+ 0.641422 3 5 cbr 210 ------- 0 0.0 5.0 37 37
- 0.641422 3 5 cbr 210 ------- 0 0.0 5.0 37 37
+ 0.6425 0 1 cbr 210 ------- 0 0.0 5.0 38 38
- 0.6425 0 1 cbr 210 ------- 0 0.0 5.0 38 38
r 0.642758 3 5 cbr 210 ------- 0 0.0 5.0 37 37
r 0.643836 0 1 cbr 210 ------- 0 0.0 5.0 38 38
+ 0.643836 1 3 cbr 210 ------- 0 0.0 5.0 38 38
- 0.643836 1 3 cbr 210 ------- 0 0.0 5.0 38 38
r 0.645172 1 3 cbr 210 ------- 0 0.0 5.0 38 38
+ 0.645172 3 5 cbr 210 ------- 0 0.0 5.0 38 38
- 0.645172 3 5 cbr 210 ------- 0 0.0 5.0 38 38
+ 0.64625 0 1 cbr 210 ------- 0 0.0 5.0 39 39
- 0.64625 0 1 cbr 210 ------- 0 0.0 5.0 39 39
r 0.646508 3 5 cbr 210 ------- 0 0.0 5.0 38 38
r 0.647586 0 1 cbr 210 ------- 0 0.0 5.0 39 39
+ 0.647586 1 3 cbr 210 ------- 0 0.0 5.0 39 39
- 0.647586 1 3 cbr 210 ------- 0 0.0 5.0 39 39
r 0.648922 1 3 cbr 210 ------- 0 0.0 5.0 39 39
+ 0.648922 3 5 cbr 210 ------- 0 0.0 5.0 39 39
- 0.648922 3 5 cbr 210 ------- 0 0.0 5.0 39 39
+ 0.65 0 1 cbr 210 ------- 0 0.0 5.0 40 40
- 0.65 0 1 cbr 210 ------- 0 0.0 5.0 40 40
r 0.650258 3 5 cbr 210 ------- 0 0.0 5.0 39 39
r 0.651336 0 1 cbr 210 ------- 0 0.0 5.0 40 40
+ 0.651336 1 3 cbr 210 ------- 0 0.0 5.0 40 40
- 0.651336 1 3 cbr 210 ------- 0 0.0 5.0 40 40
r 0.652672 1 3 cbr 210 ------- 0 0.0 5.0 40 40
+ 0.652672 3 5 cbr 210 ------- 0 0.0 5.0 40 40
- 0.652672 3 5 cbr 210 ------- 0 0.0 5.0 40 40
+ 0.65375 0 1 cbr 210 ------- 0 0.0 5.0 41 41
- 0.65375 0 1 cbr 210 ------- 0 0.0 5.0 41 41
r 0.654008 3 5 cbr 210 ------- 0 0.0 5.0 40 40
r 0.655086 0 1 cbr 210 ------- 0 0.0 5.0 41 41
+ 0.655086 1 3 cbr 210 ------- 0 0.0 5.0 41 41
- 0.655086 1 3 cbr 210 ------- 0 0.0 5.0 41 41
r 0.656422 1 3 cbr 210 ------- 0 0.0 5.0 41 41
+ 0.656422 3 5 cbr 210 ------- 0 0.0 5.0 41 41
- 0.656422 3 5 cbr 210 ------- 0 0.0 5.0 41 41
+ 0.6575 0 1 cbr 210 ------- 0 0.0 5.0 42 42
- 0.6575 0 1 cbr 210 ------- 0 0.0 5.0 42 42
r 0.657758 3 5 cbr 210 ------- 0 0.0 5.0 41 41
r 0.658836 0 1 cbr 210 ------- 0 0.0 5.0 42 42
+ 0.658836 1 3 cbr 210 ------- 0 0.0 5.0 42 42
- 0.658836 1 3 cbr 210 ------- 0 0.0 5.0 42 42
r 0.660172 1 3 cbr 210 ------- 0 0.0 5.0 42 42
+ 0.660172 3 5 cbr 210 ------- 0 0.0 5.0 42 42
- 0.660172 3 5 cbr 210 ------- 0 0.0 5.0 42 42
+ 0.66125 0 1 cbr 210 ------- 0 0.0 5.0 43 43
- 0.66125 0 1 cbr 210 ------- 0 0.0 5.0 43 43
r 0.661508 3 5 cbr 210 ------- 0 0.0 5.0 42 42
r 0.662586 0 1 cbr 210 ------- 0 0.0 5.0 43 43
+ 0.662586 1 3 cbr 210 ------- 0 0.0 5.0 43 43
- 0.662586 1 3 cbr 210 ------- 0 0.0 5.0 43 43
r 0.663922 1 3 cbr 210 ------- 0 0.0 5.0 43 43
+ 0.663922 3 5 cbr 210 ------- 0 0.0 5.0 43 43
- 0.663922 3 5 cbr 210 ------- 0 0.0 5.0 43 43
+ 0.665 0 1 cbr 210 ------- 0 0.0 5.0 44 44
- 0.665 0 1 cbr 210 ------- 0 0.0 5.0 44 44
r 0.665258 3 5 cbr 210 ------- 0 0.0 5.0 43 43
r 0.666336 0 1 cbr 210 ------- 0 0.0 5.0 44 44
+ 0.666336 1 3 cbr 210 ------- 0 0.0 5.0 44 44
- 0.666336 1 3 cbr 210 ------- 0 0.0 5.0 44 44
r 0.667672 1 3 cbr 210 ------- 0 0.0 5.0 44 44
+ 0.667672 3 5 cbr 210 ------- 0 0.0 5.0 44 44
- 0.667672 3 5 cbr 210 ------- 0 0.0 5.0 44 44
+ 0.66875 0 1 cbr 210 ------- 0 0.0 5.0 45 45
- 0.66875 0 1 cbr 210 ------- 0 0.0 5.0 45 45
r 0.669008 3 5 cbr 210 ------- 0 0.0 5.0 44 44
r 0.670086 0 1 cbr 210 ------- 0 0.0 5.0 45 45
+ 0.670086 1 3 cbr 210 ------- 0 0.0 5.0 45 45
- 0.670086 1 3 cbr 210 ------- 0 0.0 5.0 45 45
r 0.671422 1 3 cbr 210 ------- 0 0.0 5.0 45 45
+ 0.671422 3 5 cbr 210 ------- 0 0.0 5.0 45 45
- 0.671422 3 5 cbr 210 ------- 0 0.0 5.0 45 45
+ 0.6725 0 1 cbr 210 ------- 0 0.0 5.0 46 46
- 0.6725 0 1 cbr 210 ------- 0 0.0 5.0 46 46
r 0.672758 3 5 cbr 210 ------- 0 0.0 5.0 45 45
r 0.673836 0 1 cbr 210 ------- 0 0.0 5.0 46 46
+ 0.673836 1 3 cbr 210 ------- 0 0.0 5.0 46 46
- 0.673836 1 3 cbr 210 ------- 0 0.0 5.0 46 46
r 0.675172 1 3 cbr 210 ------- 0 0.0 5.0 46 46
+ 0.675172 3 5 cbr 210 ------- 0 0.0 5.0 46 46
- 0.675172 3 5 cbr 210 ------- 0 0.0 5.0 46 46
+ 0.67625 0 1 cbr 210 ------- 0 0.0 5.0 47 47
- 0.67625 0 1 cbr 210 ------- 0 0.0 5.0 47 47
r 0.676508 3 5 cbr 210 ------- 0 0.0 5.0 46 46
r 0.677586 0 1 cbr 210 ------- 0 0.0 5.0 47 47
+ 0.677586 1 3 cbr 210 ------- 0 0.0 5.0 47 47
- 0.677586 1 3 cbr 210 ------- 0 0.0 5.0 47 47
r 0.678922 1 3 cbr 210 ------- 0 0.0 5.0 47 47
+ 0.678922 3 5 cbr 210 ------- 0 0.0 5.0 47 47
- 0.678922 3 5 cbr 210 ------- 0 0.0 5.0 47 47
+ 0.68 0 1 cbr 210 ------- 0 0.0 5.0 48 48
- 0.68 0 1 cbr 210 ------- 0 0.0 5.0 48 48
r 0.680258 3 5 cbr 210 ------- 0 0.0 5.0 47 47
r 0.681336 0 1 cbr 210 ------- 0 0.0 5.0 48 48
+ 0.681336 1 3 cbr 210 ------- 0 0.0 5.0 48 48
- 0.681336 1 3 cbr 210 ------- 0 0.0 5.0 48 48
r 0.682672 1 3 cbr 210 ------- 0 0.0 5.0 48 48
+ 0.682672 3 5 cbr 210 ------- 0 0.0 5.0 48 48
- 0.682672 3 5 cbr 210 ------- 0 0.0 5.0 48 48
+ 0.68375 0 1 cbr 210 ------- 0 0.0 5.0 49 49
- 0.68375 0 1 cbr 210 ------- 0 0.0 5.0 49 49
r 0.684008 3 5 cbr 210 ------- 0 0.0 5.0 48 48
r 0.685086 0 1 cbr 210 ------- 0 0.0 5.0 49 49
+ 0.685086 1 3 cbr 210 ------- 0 0.0 5.0 49 49
- 0.685086 1 3 cbr 210 ------- 0 0.0 5.0 49 49
r 0.686422 1 3 cbr 210 ------- 0 0.0 5.0 49 49
+ 0.686422 3 5 cbr 210 ------- 0 0.0 5.0 49 49
- 0.686422 3 5 cbr 210 ------- 0 0.0 5.0 49 49
+ 0.6875 0 1 cbr 210 ------- 0 0.0 5.0 50 50
- 0.6875 0 1 cbr 210 ------- 0 0.0 5.0 50 50
r 0.687758 3 5 cbr 210 ------- 0 0.0 5.0 49 49
r 0.688836 0 1 cbr 210 ------- 0 0.0 5.0 50 50
+ 0.688836 1 3 cbr 210 ------- 0 0.0 5.0 50 50
- 0.688836 1 3 cbr 210 ------- 0 0.0 5.0 50 50
r 0.690172 1 3 cbr 210 ------- 0 0.0 5.0 50 50
+ 0.690172 3 5 cbr 210 ------- 0 0.0 5.0 50 50
- 0.690172 3 5 cbr 210 ------- 0 0.0 5.0 50 50
+ 0.69125 0 1 cbr 210 ------- 0 0.0 5.0 51 51
- 0.69125 0 1 cbr 210 ------- 0 0.0 5.0 51 51
r 0.691508 3 5 cbr 210 ------- 0 0.0 5.0 50 50
r 0.692586 0 1 cbr 210 ------- 0 0.0 5.0 51 51
+ 0.692586 1 3 cbr 210 ------- 0 0.0 5.0 51 51
- 0.692586 1 3 cbr 210 ------- 0 0.0 5.0 51 51
r 0.693922 1 3 cbr 210 ------- 0 0.0 5.0 51 51
+ 0.693922 3 5 cbr 210 ------- 0 0.0 5.0 51 51
- 0.693922 3 5 cbr 210 ------- 0 0.0 5.0 51 51
+ 0.695 0 1 cbr 210 ------- 0 0.0 5.0 52 52
- 0.695 0 1 cbr 210 ------- 0 0.0 5.0 52 52
r 0.695258 3 5 cbr 210 ------- 0 0.0 5.0 51 51
r 0.696336 0 1 cbr 210 ------- 0 0.0 5.0 52 52
+ 0.696336 1 3 cbr 210 ------- 0 0.0 5.0 52 52
- 0.696336 1 3 cbr 210 ------- 0 0.0 5.0 52 52
r 0.697672 1 3 cbr 210 ------- 0 0.0 5.0 52 52
+ 0.697672 3 5 cbr 210 ------- 0 0.0 5.0 52 52
- 0.697672 3 5 cbr 210 ------- 0 0.0 5.0 52 52
+ 0.69875 0 1 cbr 210 ------- 0 0.0 5.0 53 53
- 0.69875 0 1 cbr 210 ------- 0 0.0 5.0 53 53
r 0.699008 3 5 cbr 210 ------- 0 0.0 5.0 52 52
r 0.700086 0 1 cbr 210 ------- 0 0.0 5.0 53 53
+ 0.700086 1 3 cbr 210 ------- 0 0.0 5.0 53 53
- 0.700086 1 3 cbr 210 ------- 0 0.0 5.0 53 53
r 0.701422 1 3 cbr 210 ------- 0 0.0 5.0 53 53
+ 0.701422 3 5 cbr 210 ------- 0 0.0 5.0 53 53
- 0.701422 3 5 cbr 210 ------- 0 0.0 5.0 53 53
+ 0.7025 0 1 cbr 210 ------- 0 0.0 5.0 54 54
- 0.7025 0 1 cbr 210 ------- 0 0.0 5.0 54 54
r 0.702758 3 5 cbr 210 ------- 0 0.0 5.0 53 53
r 0.703836 0 1 cbr 210 ------- 0 0.0 5.0 54 54
+ 0.703836 1 3 cbr 210 ------- 0 0.0 5.0 54 54
- 0.703836 1 3 cbr 210 ------- 0 0.0 5.0 54 54
r 0.705172 1 3 cbr 210 ------- 0 0.0 5.0 54 54
+ 0.705172 3 5 cbr 210 ------- 0 0.0 5.0 54 54
- 0.705172 3 5 cbr 210 ------- 0 0.0 5.0 54 54
+ 0.70625 0 1 cbr 210 ------- 0 0.0 5.0 55 55
- 0.70625 0 1 cbr 210 ------- 0 0.0 5.0 55 55
r 0.706508 3 5 cbr 210 ------- 0 0.0 5.0 54 54
r 0.707586 0 1 cbr 210 ------- 0 0.0 5.0 55 55
+ 0.707586 1 3 cbr 210 ------- 0 0.0 5.0 55 55
- 0.707586 1 3 cbr 210 ------- 0 0.0 5.0 55 55
r 0.708922 1 3 cbr 210 ------- 0 0.0 5.0 55 55
+ 0.708922 3 5 cbr 210 ------- 0 0.0 5.0 55 55
- 0.708922 3 5 cbr 210 ------- 0 0.0 5.0 55 55
+ 0.71 0 1 cbr 210 ------- 0 0.0 5.0 56 56
- 0.71 0 1 cbr 210 ------- 0 0.0 5.0 56 56
r 0.710258 3 5 cbr 210 ------- 0 0.0 5.0 55 55
r 0.711336 0 1 cbr 210 ------- 0 0.0 5.0 56 56
+ 0.711336 1 3 cbr 210 ------- 0 0.0 5.0 56 56
- 0.711336 1 3 cbr 210 ------- 0 0.0 5.0 56 56
r 0.712672 1 3 cbr 210 ------- 0 0.0 5.0 56 56
+ 0.712672 3 5 cbr 210 ------- 0 0.0 5.0 56 56
- 0.712672 3 5 cbr 210 ------- 0 0.0 5.0 56 56
+ 0.71375 0 1 cbr 210 ------- 0 0.0 5.0 57 57
- 0.71375 0 1 cbr 210 ------- 0 0.0 5.0 57 57
r 0.714008 3 5 cbr 210 ------- 0 0.0 5.0 56 56
r 0.715086 0 1 cbr 210 ------- 0 0.0 5.0 57 57
+ 0.715086 1 3 cbr 210 ------- 0 0.0 5.0 57 57
- 0.715086 1 3 cbr 210 ------- 0 0.0 5.0 57 57
r 0.716422 1 3 cbr 210 ------- 0 0.0 5.0 57 57
+ 0.716422 3 5 cbr 210 ------- 0 0.0 5.0 57 57
- 0.716422 3 5 cbr 210 ------- 0 0.0 5.0 57 57
+ 0.7175 0 1 cbr 210 ------- 0 0.0 5.0 58 58
- 0.7175 0 1 cbr 210 ------- 0 0.0 5.0 58 58
r 0.717758 3 5 cbr 210 ------- 0 0.0 5.0 57 57
r 0.718836 0 1 cbr 210 ------- 0 0.0 5.0 58 58
+ 0.718836 1 3 cbr 210 ------- 0 0.0 5.0 58 58
- 0.718836 1 3 cbr 210 ------- 0 0.0 5.0 58 58
r 0.720172 1 3 cbr 210 ------- 0 0.0 5.0 58 58
+ 0.720172 3 5 cbr 210 ------- 0 0.0 5.0 58 58
- 0.720172 3 5 cbr 210 ------- 0 0.0 5.0 58 58
+ 0.72125 0 1 cbr 210 ------- 0 0.0 5.0 59 59
- 0.72125 0 1 cbr 210 ------- 0 0.0 5.0 59 59
r 0.721508 3 5 cbr 210 ------- 0 0.0 5.0 58 58
r 0.722586 0 1 cbr 210 ------- 0 0.0 5.0 59 59
+ 0.722586 1 3 cbr 210 ------- 0 0.0 5.0 59 59
- 0.722586 1 3 cbr 210 ------- 0 0.0 5.0 59 59
r 0.723922 1 3 cbr 210 ------- 0 0.0 5.0 59 59
+ 0.723922 3 5 cbr 210 ------- 0 0.0 5.0 59 59
- 0.723922 3 5 cbr 210 ------- 0 0.0 5.0 59 59
+ 0.725 0 1 cbr 210 ------- 0 0.0 5.0 60 60
- 0.725 0 1 cbr 210 ------- 0 0.0 5.0 60 60
r 0.725258 3 5 cbr 210 ------- 0 0.0 5.0 59 59
r 0.726336 0 1 cbr 210 ------- 0 0.0 5.0 60 60
+ 0.726336 1 3 cbr 210 ------- 0 0.0 5.0 60 60
- 0.726336 1 3 cbr 210 ------- 0 0.0 5.0 60 60
r 0.727672 1 3 cbr 210 ------- 0 0.0 5.0 60 60
+ 0.727672 3 5 cbr 210 ------- 0 0.0 5.0 60 60
- 0.727672 3 5 cbr 210 ------- 0 0.0 5.0 60 60
+ 0.72875 0 1 cbr 210 ------- 0 0.0 5.0 61 61
- 0.72875 0 1 cbr 210 ------- 0 0.0 5.0 61 61
r 0.729008 3 5 cbr 210 ------- 0 0.0 5.0 60 60
r 0.730086 0 1 cbr 210 ------- 0 0.0 5.0 61 61
+ 0.730086 1 3 cbr 210 ------- 0 0.0 5.0 61 61
- 0.730086 1 3 cbr 210 ------- 0 0.0 5.0 61 61
r 0.731422 1 3 cbr 210 ------- 0 0.0 5.0 61 61
+ 0.731422 3 5 cbr 210 ------- 0 0.0 5.0 61 61
- 0.731422 3 5 cbr 210 ------- 0 0.0 5.0 61 61
+ 0.7325 0 1 cbr 210 ------- 0 0.0 5.0 62 62
- 0.7325 0 1 cbr 210 ------- 0 0.0 5.0 62 62
r 0.732758 3 5 cbr 210 ------- 0 0.0 5.0 61 61
r 0.733836 0 1 cbr 210 ------- 0 0.0 5.0 62 62
+ 0.733836 1 3 cbr 210 ------- 0 0.0 5.0 62 62
- 0.733836 1 3 cbr 210 ------- 0 0.0 5.0 62 62
r 0.735172 1 3 cbr 210 ------- 0 0.0 5.0 62 62
+ 0.735172 3 5 cbr 210 ------- 0 0.0 5.0 62 62
- 0.735172 3 5 cbr 210 ------- 0 0.0 5.0 62 62
+ 0.73625 0 1 cbr 210 ------- 0 0.0 5.0 63 63
- 0.73625 0 1 cbr 210 ------- 0 0.0 5.0 63 63
r 0.736508 3 5 cbr 210 ------- 0 0.0 5.0 62 62
r 0.737586 0 1 cbr 210 ------- 0 0.0 5.0 63 63
+ 0.737586 1 3 cbr 210 ------- 0 0.0 5.0 63 63
- 0.737586 1 3 cbr 210 ------- 0 0.0 5.0 63 63
r 0.738922 1 3 cbr 210 ------- 0 0.0 5.0 63 63
+ 0.738922 3 5 cbr 210 ------- 0 0.0 5.0 63 63
- 0.738922 3 5 cbr 210 ------- 0 0.0 5.0 63 63
+ 0.74 0 1 cbr 210 ------- 0 0.0 5.0 64 64
- 0.74 0 1 cbr 210 ------- 0 0.0 5.0 64 64
r 0.740258 3 5 cbr 210 ------- 0 0.0 5.0 63 63
r 0.741336 0 1 cbr 210 ------- 0 0.0 5.0 64 64
+ 0.741336 1 3 cbr 210 ------- 0 0.0 5.0 64 64
- 0.741336 1 3 cbr 210 ------- 0 0.0 5.0 64 64
r 0.742672 1 3 cbr 210 ------- 0 0.0 5.0 64 64
+ 0.742672 3 5 cbr 210 ------- 0 0.0 5.0 64 64
- 0.742672 3 5 cbr 210 ------- 0 0.0 5.0 64 64
+ 0.74375 0 1 cbr 210 ------- 0 0.0 5.0 65 65
- 0.74375 0 1 cbr 210 ------- 0 0.0 5.0 65 65
r 0.744008 3 5 cbr 210 ------- 0 0.0 5.0 64 64
r 0.745086 0 1 cbr 210 ------- 0 0.0 5.0 65 65
+ 0.745086 1 3 cbr 210 ------- 0 0.0 5.0 65 65
- 0.745086 1 3 cbr 210 ------- 0 0.0 5.0 65 65
r 0.746422 1 3 cbr 210 ------- 0 0.0 5.0 65 65
+ 0.746422 3 5 cbr 210 ------- 0 0.0 5.0 65 65
- 0.746422 3 5 cbr 210 ------- 0 0.0 5.0 65 65
+ 0.7475 0 1 cbr 210 ------- 0 0.0 5.0 66 66
- 0.7475 0 1 cbr 210 ------- 0 0.0 5.0 66 66
r 0.747758 3 5 cbr 210 ------- 0 0.0 5.0 65 65
r 0.748836 0 1 cbr 210 ------- 0 0.0 5.0 66 66
+ 0.748836 1 3 cbr 210 ------- 0 0.0 5.0 66 66
- 0.748836 1 3 cbr 210 ------- 0 0.0 5.0 66 66
r 0.750172 1 3 cbr 210 ------- 0 0.0 5.0 66 66
+ 0.750172 3 5 cbr 210 ------- 0 0.0 5.0 66 66
- 0.750172 3 5 cbr 210 ------- 0 0.0 5.0 66 66
+ 0.75125 0 1 cbr 210 ------- 0 0.0 5.0 67 67
- 0.75125 0 1 cbr 210 ------- 0 0.0 5.0 67 67
r 0.751508 3 5 cbr 210 ------- 0 0.0 5.0 66 66
r 0.752586 0 1 cbr 210 ------- 0 0.0 5.0 67 67
+ 0.752586 1 3 cbr 210 ------- 0 0.0 5.0 67 67
- 0.752586 1 3 cbr 210 ------- 0 0.0 5.0 67 67
r 0.753922 1 3 cbr 210 ------- 0 0.0 5.0 67 67
+ 0.753922 3 5 cbr 210 ------- 0 0.0 5.0 67 67
- 0.753922 3 5 cbr 210 ------- 0 0.0 5.0 67 67
+ 0.755 0 1 cbr 210 ------- 0 0.0 5.0 68 68
- 0.755 0 1 cbr 210 ------- 0 0.0 5.0 68 68
r 0.755258 3 5 cbr 210 ------- 0 0.0 5.0 67 67
r 0.756336 0 1 cbr 210 ------- 0 0.0 5.0 68 68
+ 0.756336 1 3 cbr 210 ------- 0 0.0 5.0 68 68
- 0.756336 1 3 cbr 210 ------- 0 0.0 5.0 68 68
r 0.757672 1 3 cbr 210 ------- 0 0.0 5.0 68 68
+ 0.757672 3 5 cbr 210 ------- 0 0.0 5.0 68 68
- 0.757672 3 5 cbr 210 ------- 0 0.0 5.0 68 68
+ 0.75875 0 1 cbr 210 ------- 0 0.0 5.0 69 69
- 0.75875 0 1 cbr 210 ------- 0 0.0 5.0 69 69
r 0.759008 3 5 cbr 210 ------- 0 0.0 5.0 68 68
r 0.760086 0 1 cbr 210 ------- 0 0.0 5.0 69 69
+ 0.760086 1 3 cbr 210 ------- 0 0.0 5.0 69 69
- 0.760086 1 3 cbr 210 ------- 0 0.0 5.0 69 69
r 0.761422 1 3 cbr 210 ------- 0 0.0 5.0 69 69
+ 0.761422 3 5 cbr 210 ------- 0 0.0 5.0 69 69
- 0.761422 3 5 cbr 210 ------- 0 0.0 5.0 69 69
+ 0.7625 0 1 cbr 210 ------- 0 0.0 5.0 70 70
- 0.7625 0 1 cbr 210 ------- 0 0.0 5.0 70 70
r 0.762758 3 5 cbr 210 ------- 0 0.0 5.0 69 69
r 0.763836 0 1 cbr 210 ------- 0 0.0 5.0 70 70
+ 0.763836 1 3 cbr 210 ------- 0 0.0 5.0 70 70
- 0.763836 1 3 cbr 210 ------- 0 0.0 5.0 70 70
r 0.765172 1 3 cbr 210 ------- 0 0.0 5.0 70 70
+ 0.765172 3 5 cbr 210 ------- 0 0.0 5.0 70 70
- 0.765172 3 5 cbr 210 ------- 0 0.0 5.0 70 70
+ 0.76625 0 1 cbr 210 ------- 0 0.0 5.0 71 71
- 0.76625 0 1 cbr 210 ------- 0 0.0 5.0 71 71
r 0.766508 3 5 cbr 210 ------- 0 0.0 5.0 70 70
r 0.767586 0 1 cbr 210 ------- 0 0.0 5.0 71 71
+ 0.767586 1 3 cbr 210 ------- 0 0.0 5.0 71 71
- 0.767586 1 3 cbr 210 ------- 0 0.0 5.0 71 71
r 0.768922 1 3 cbr 210 ------- 0 0.0 5.0 71 71
+ 0.768922 3 5 cbr 210 ------- 0 0.0 5.0 71 71
- 0.768922 3 5 cbr 210 ------- 0 0.0 5.0 71 71
+ 0.77 0 1 cbr 210 ------- 0 0.0 5.0 72 72