+ 0 0 2 cbr 210 ------- 1 0.0 4.0 0 0
- 0 0 2 cbr 210 ------- 1 0.0 4.0 0 0
+ 0 1 2 tcp 40 ------- 2 1.0 5.0 0 1
- 0 1 2 tcp 40 ------- 2 1.0 5.0 0 1
r 0.002168 0 2 cbr 210 ------- 1 0.0 4.0 0 0
+ 0.002168 2 3 cbr 210 ------- 1 0.0 4.0 0 0
- 0.002168 2 3 cbr 210 ------- 1 0.0 4.0 0 0
+ 0.00375 0 2 cbr 210 ------- 1 0.0 4.0 1 2
- 0.00375 0 2 cbr 210 ------- 1 0.0 4.0 1 2
r 0.004032 1 2 tcp 40 ------- 2 1.0 5.0 0 1
+ 0.004032 2 3 tcp 40 ------- 2 1.0 5.0 0 1
r 0.005918 0 2 cbr 210 ------- 1 0.0 4.0 1 2
+ 0.005918 2 3 cbr 210 ------- 1 0.0 4.0 1 2
- 0.006368 2 3 tcp 40 ------- 2 1.0 5.0 0 1
- 0.007168 2 3 cbr 210 ------- 1 0.0 4.0 1 2
+ 0.0075 0 2 cbr 210 ------- 1 0.0 4.0 2 3
- 0.0075 0 2 cbr 210 ------- 1 0.0 4.0 2 3
r 0.009668 0 2 cbr 210 ------- 1 0.0 4.0 2 3
+ 0.009668 2 3 cbr 210 ------- 1 0.0 4.0 2 3
+ 0.01125 0 2 cbr 210 ------- 1 0.0 4.0 3 4
- 0.01125 0 2 cbr 210 ------- 1 0.0 4.0 3 4
- 0.011368 2 3 cbr 210 ------- 1 0.0 4.0 2 3
r 0.013418 0 2 cbr 210 ------- 1 0.0 4.0 3 4
+ 0.013418 2 3 cbr 210 ------- 1 0.0 4.0 3 4
r 0.014368 2 3 cbr 210 ------- 1 0.0 4.0 0 0
+ 0.014368 3 4 cbr 210 ------- 1 0.0 4.0 0 0
- 0.014368 3 4 cbr 210 ------- 1 0.0 4.0 0 0
+ 0.015 0 2 cbr 210 ------- 1 0.0 4.0 4 5
- 0.015 0 2 cbr 210 ------- 1 0.0 4.0 4 5
r 0.015168 2 3 tcp 40 ------- 2 1.0 5.0 0 1
+ 0.015168 3 5 tcp 40 ------- 2 1.0 5.0 0 1
- 0.015168 3 5 tcp 40 ------- 2 1.0 5.0 0 1
- 0.015568 2 3 cbr 210 ------- 1 0.0 4.0 3 4
r 0.016928 3 4 cbr 210 ------- 1 0.0 4.0 0 0
r 0.017168 0 2 cbr 210 ------- 1 0.0 4.0 4 5
+ 0.017168 2 3 cbr 210 ------- 1 0.0 4.0 4 5
r 0.017232 3 5 tcp 40 ------- 2 1.0 5.0 0 1
+ 0.017232 5 3 ack 40 ------- 2 5.0 1.0 0 6
- 0.017232 5 3 ack 40 ------- 2 5.0 1.0 0 6
+ 0.01875 0 2 cbr 210 ------- 1 0.0 4.0 5 7
- 0.01875 0 2 cbr 210 ------- 1 0.0 4.0 5 7
r 0.019296 5 3 ack 40 ------- 2 5.0 1.0 0 6
+ 0.019296 3 2 ack 40 ------- 2 5.0 1.0 0 6
- 0.019296 3 2 ack 40 ------- 2 5.0 1.0 0 6
r 0.019368 2 3 cbr 210 ------- 1 0.0 4.0 1 2
+ 0.019368 3 4 cbr 210 ------- 1 0.0 4.0 1 2
- 0.019368 3 4 cbr 210 ------- 1 0.0 4.0 1 2
- 0.019768 2 3 cbr 210 ------- 1 0.0 4.0 4 5
r 0.020918 0 2 cbr 210 ------- 1 0.0 4.0 5 7
+ 0.020918 2 3 cbr 210 ------- 1 0.0 4.0 5 7
r 0.021928 3 4 cbr 210 ------- 1 0.0 4.0 1 2
+ 0.0225 0 2 cbr 210 ------- 1 0.0 4.0 6 8
- 0.0225 0 2 cbr 210 ------- 1 0.0 4.0 6 8
r 0.023568 2 3 cbr 210 ------- 1 0.0 4.0 2 3
+ 0.023568 3 4 cbr 210 ------- 1 0.0 4.0 2 3
- 0.023568 3 4 cbr 210 ------- 1 0.0 4.0 2 3
- 0.023968 2 3 cbr 210 ------- 1 0.0 4.0 5 7
r 0.024668 0 2 cbr 210 ------- 1 0.0 4.0 6 8
+ 0.024668 2 3 cbr 210 ------- 1 0.0 4.0 6 8
r 0.026128 3 4 cbr 210 ------- 1 0.0 4.0 2 3
+ 0.02625 0 2 cbr 210 ------- 1 0.0 4.0 7 9
- 0.02625 0 2 cbr 210 ------- 1 0.0 4.0 7 9
r 0.027768 2 3 cbr 210 ------- 1 0.0 4.0 3 4
+ 0.027768 3 4 cbr 210 ------- 1 0.0 4.0 3 4
- 0.027768 3 4 cbr 210 ------- 1 0.0 4.0 3 4
r 0.028096 3 2 ack 40 ------- 2 5.0 1.0 0 6
+ 0.028096 2 1 ack 40 ------- 2 5.0 1.0 0 6
- 0.028096 2 1 ack 40 ------- 2 5.0 1.0 0 6
- 0.028168 2 3 cbr 210 ------- 1 0.0 4.0 6 8
r 0.028418 0 2 cbr 210 ------- 1 0.0 4.0 7 9
+ 0.028418 2 3 cbr 210 ------- 1 0.0 4.0 7 9
+ 0.03 0 2 cbr 210 ------- 1 0.0 4.0 8 10
- 0.03 0 2 cbr 210 ------- 1 0.0 4.0 8 10
r 0.030328 3 4 cbr 210 ------- 1 0.0 4.0 3 4
r 0.031968 2 3 cbr 210 ------- 1 0.0 4.0 4 5
+ 0.031968 3 4 cbr 210 ------- 1 0.0 4.0 4 5
- 0.031968 3 4 cbr 210 ------- 1 0.0 4.0 4 5
r 0.032128 2 1 ack 40 ------- 2 5.0 1.0 0 6
+ 0.032128 1 2 tcp 1040 ------- 2 1.0 5.0 1 11
- 0.032128 1 2 tcp 1040 ------- 2 1.0 5.0 1 11
+ 0.032128 1 2 tcp 1040 ------- 2 1.0 5.0 2 12
r 0.032168 0 2 cbr 210 ------- 1 0.0 4.0 8 10
+ 0.032168 2 3 cbr 210 ------- 1 0.0 4.0 8 10
- 0.032368 2 3 cbr 210 ------- 1 0.0 4.0 7 9
- 0.03296 1 2 tcp 1040 ------- 2 1.0 5.0 2 12
+ 0.03375 0 2 cbr 210 ------- 1 0.0 4.0 9 13
- 0.03375 0 2 cbr 210 ------- 1 0.0 4.0 9 13
r 0.034528 3 4 cbr 210 ------- 1 0.0 4.0 4 5
r 0.035918 0 2 cbr 210 ------- 1 0.0 4.0 9 13
+ 0.035918 2 3 cbr 210 ------- 1 0.0 4.0 9 13
r 0.036168 2 3 cbr 210 ------- 1 0.0 4.0 5 7
+ 0.036168 3 4 cbr 210 ------- 1 0.0 4.0 5 7
- 0.036168 3 4 cbr 210 ------- 1 0.0 4.0 5 7
- 0.036568 2 3 cbr 210 ------- 1 0.0 4.0 8 10
r 0.03696 1 2 tcp 1040 ------- 2 1.0 5.0 1 11
+ 0.03696 2 3 tcp 1040 ------- 2 1.0 5.0 1 11
+ 0.0375 0 2 cbr 210 ------- 1 0.0 4.0 10 14
- 0.0375 0 2 cbr 210 ------- 1 0.0 4.0 10 14
r 0.037792 1 2 tcp 1040 ------- 2 1.0 5.0 2 12
+ 0.037792 2 3 tcp 1040 ------- 2 1.0 5.0 2 12
r 0.038728 3 4 cbr 210 ------- 1 0.0 4.0 5 7
r 0.039668 0 2 cbr 210 ------- 1 0.0 4.0 10 14
+ 0.039668 2 3 cbr 210 ------- 1 0.0 4.0 10 14
r 0.040368 2 3 cbr 210 ------- 1 0.0 4.0 6 8
+ 0.040368 3 4 cbr 210 ------- 1 0.0 4.0 6 8
- 0.040368 3 4 cbr 210 ------- 1 0.0 4.0 6 8
- 0.040768 2 3 cbr 210 ------- 1 0.0 4.0 9 13
+ 0.04125 0 2 cbr 210 ------- 1 0.0 4.0 11 15
- 0.04125 0 2 cbr 210 ------- 1 0.0 4.0 11 15
r 0.042928 3 4 cbr 210 ------- 1 0.0 4.0 6 8
r 0.043418 0 2 cbr 210 ------- 1 0.0 4.0 11 15
+ 0.043418 2 3 cbr 210 ------- 1 0.0 4.0 11 15
r 0.044568 2 3 cbr 210 ------- 1 0.0 4.0 7 9
+ 0.044568 3 4 cbr 210 ------- 1 0.0 4.0 7 9
- 0.044568 3 4 cbr 210 ------- 1 0.0 4.0 7 9
- 0.044968 2 3 tcp 1040 ------- 2 1.0 5.0 1 11
+ 0.045 0 2 cbr 210 ------- 1 0.0 4.0 12 16
- 0.045 0 2 cbr 210 ------- 1 0.0 4.0 12 16
r 0.047128 3 4 cbr 210 ------- 1 0.0 4.0 7 9
r 0.047168 0 2 cbr 210 ------- 1 0.0 4.0 12 16
+ 0.047168 2 3 cbr 210 ------- 1 0.0 4.0 12 16
+ 0.04875 0 2 cbr 210 ------- 1 0.0 4.0 13 17
- 0.04875 0 2 cbr 210 ------- 1 0.0 4.0 13 17
r 0.048768 2 3 cbr 210 ------- 1 0.0 4.0 8 10
+ 0.048768 3 4 cbr 210 ------- 1 0.0 4.0 8 10
- 0.048768 3 4 cbr 210 ------- 1 0.0 4.0 8 10
r 0.050918 0 2 cbr 210 ------- 1 0.0 4.0 13 17
+ 0.050918 2 3 cbr 210 ------- 1 0.0 4.0 13 17
r 0.051328 3 4 cbr 210 ------- 1 0.0 4.0 8 10
+ 0.0525 0 2 cbr 210 ------- 1 0.0 4.0 14 18
- 0.0525 0 2 cbr 210 ------- 1 0.0 4.0 14 18
r 0.052968 2 3 cbr 210 ------- 1 0.0 4.0 9 13
+ 0.052968 3 4 cbr 210 ------- 1 0.0 4.0 9 13
- 0.052968 3 4 cbr 210 ------- 1 0.0 4.0 9 13
r 0.054668 0 2 cbr 210 ------- 1 0.0 4.0 14 18
+ 0.054668 2 3 cbr 210 ------- 1 0.0 4.0 14 18
r 0.055528 3 4 cbr 210 ------- 1 0.0 4.0 9 13
+ 0.05625 0 2 cbr 210 ------- 1 0.0 4.0 15 19
- 0.05625 0 2 cbr 210 ------- 1 0.0 4.0 15 19
r 0.058418 0 2 cbr 210 ------- 1 0.0 4.0 15 19
+ 0.058418 2 3 cbr 210 ------- 1 0.0 4.0 15 19
+ 0.06 0 2 cbr 210 ------- 1 0.0 4.0 16 20
- 0.06 0 2 cbr 210 ------- 1 0.0 4.0 16 20
r 0.062168 0 2 cbr 210 ------- 1 0.0 4.0 16 20
+ 0.062168 2 3 cbr 210 ------- 1 0.0 4.0 16 20
+ 0.06375 0 2 cbr 210 ------- 1 0.0 4.0 17 21
- 0.06375 0 2 cbr 210 ------- 1 0.0 4.0 17 21
- 0.065768 2 3 tcp 1040 ------- 2 1.0 5.0 2 12
r 0.065918 0 2 cbr 210 ------- 1 0.0 4.0 17 21
+ 0.065918 2 3 cbr 210 ------- 1 0.0 4.0 17 21
+ 0.0675 0 2 cbr 210 ------- 1 0.0 4.0 18 22
- 0.0675 0 2 cbr 210 ------- 1 0.0 4.0 18 22
r 0.069668 0 2 cbr 210 ------- 1 0.0 4.0 18 22
+ 0.069668 2 3 cbr 210 ------- 1 0.0 4.0 18 22
+ 0.07125 0 2 cbr 210 ------- 1 0.0 4.0 19 23
- 0.07125 0 2 cbr 210 ------- 1 0.0 4.0 19 23
r 0.073418 0 2 cbr 210 ------- 1 0.0 4.0 19 23
+ 0.073418 2 3 cbr 210 ------- 1 0.0 4.0 19 23
r 0.073768 2 3 tcp 1040 ------- 2 1.0 5.0 1 11
+ 0.073768 3 5 tcp 1040 ------- 2 1.0 5.0 1 11
- 0.073768 3 5 tcp 1040 ------- 2 1.0 5.0 1 11
+ 0.075 0 2 cbr 210 ------- 1 0.0 4.0 20 24
- 0.075 0 2 cbr 210 ------- 1 0.0 4.0 20 24
r 0.077168 0 2 cbr 210 ------- 1 0.0 4.0 20 24
+ 0.077168 2 3 cbr 210 ------- 1 0.0 4.0 20 24
r 0.077432 3 5 tcp 1040 ------- 2 1.0 5.0 1 11
+ 0.077432 5 3 ack 40 ------- 2 5.0 1.0 1 25
- 0.077432 5 3 ack 40 ------- 2 5.0 1.0 1 25
+ 0.07875 0 2 cbr 210 ------- 1 0.0 4.0 21 26
- 0.07875 0 2 cbr 210 ------- 1 0.0 4.0 21 26
r 0.079496 5 3 ack 40 ------- 2 5.0 1.0 1 25
+ 0.079496 3 2 ack 40 ------- 2 5.0 1.0 1 25
- 0.079496 3 2 ack 40 ------- 2 5.0 1.0 1 25
r 0.080918 0 2 cbr 210 ------- 1 0.0 4.0 21 26
+ 0.080918 2 3 cbr 210 ------- 1 0.0 4.0 21 26
+ 0.0825 0 2 cbr 210 ------- 1 0.0 4.0 22 27
- 0.0825 0 2 cbr 210 ------- 1 0.0 4.0 22 27
r 0.084668 0 2 cbr 210 ------- 1 0.0 4.0 22 27
+ 0.084668 2 3 cbr 210 ------- 1 0.0 4.0 22 27
+ 0.08625 0 2 cbr 210 ------- 1 0.0 4.0 23 28
- 0.08625 0 2 cbr 210 ------- 1 0.0 4.0 23 28
- 0.086568 2 3 cbr 210 ------- 1 0.0 4.0 10 14
r 0.088296 3 2 ack 40 ------- 2 5.0 1.0 1 25
+ 0.088296 2 1 ack 40 ------- 2 5.0 1.0 1 25
- 0.088296 2 1 ack 40 ------- 2 5.0 1.0 1 25
r 0.088418 0 2 cbr 210 ------- 1 0.0 4.0 23 28
+ 0.088418 2 3 cbr 210 ------- 1 0.0 4.0 23 28
+ 0.09 0 2 cbr 210 ------- 1 0.0 4.0 24 29
- 0.09 0 2 cbr 210 ------- 1 0.0 4.0 24 29
- 0.090768 2 3 cbr 210 ------- 1 0.0 4.0 11 15
r 0.092168 0 2 cbr 210 ------- 1 0.0 4.0 24 29
+ 0.092168 2 3 cbr 210 ------- 1 0.0 4.0 24 29
r 0.092328 2 1 ack 40 ------- 2 5.0 1.0 1 25
+ 0.092328 1 2 tcp 1040 ------- 2 1.0 5.0 3 30
- 0.092328 1 2 tcp 1040 ------- 2 1.0 5.0 3 30
+ 0.092328 1 2 tcp 1040 ------- 2 1.0 5.0 4 31
- 0.09316 1 2 tcp 1040 ------- 2 1.0 5.0 4 31
+ 0.09375 0 2 cbr 210 ------- 1 0.0 4.0 25 32
- 0.09375 0 2 cbr 210 ------- 1 0.0 4.0 25 32
r 0.094568 2 3 tcp 1040 ------- 2 1.0 5.0 2 12
+ 0.094568 3 5 tcp 1040 ------- 2 1.0 5.0 2 12
- 0.094568 3 5 tcp 1040 ------- 2 1.0 5.0 2 12
- 0.094968 2 3 cbr 210 ------- 1 0.0 4.0 12 16
r 0.095918 0 2 cbr 210 ------- 1 0.0 4.0 25 32
+ 0.095918 2 3 cbr 210 ------- 1 0.0 4.0 25 32
r 0.09716 1 2 tcp 1040 ------- 2 1.0 5.0 3 30
+ 0.09716 2 3 tcp 1040 ------- 2 1.0 5.0 3 30
+ 0.0975 0 2 cbr 210 ------- 1 0.0 4.0 26 33
- 0.0975 0 2 cbr 210 ------- 1 0.0 4.0 26 33
r 0.097992 1 2 tcp 1040 ------- 2 1.0 5.0 4 31
+ 0.097992 2 3 tcp 1040 ------- 2 1.0 5.0 4 31
r 0.098232 3 5 tcp 1040 ------- 2 1.0 5.0 2 12
+ 0.098232 5 3 ack 40 ------- 2 5.0 1.0 2 34
- 0.098232 5 3 ack 40 ------- 2 5.0 1.0 2 34
r 0.098768 2 3 cbr 210 ------- 1 0.0 4.0 10 14
+ 0.098768 3 4 cbr 210 ------- 1 0.0 4.0 10 14
- 0.098768 3 4 cbr 210 ------- 1 0.0 4.0 10 14
- 0.099168 2 3 cbr 210 ------- 1 0.0 4.0 13 17
r 0.099668 0 2 cbr 210 ------- 1 0.0 4.0 26 33
+ 0.099668 2 3 cbr 210 ------- 1 0.0 4.0 26 33
r 0.100296 5 3 ack 40 ------- 2 5.0 1.0 2 34
+ 0.100296 3 2 ack 40 ------- 2 5.0 1.0 2 34
- 0.100296 3 2 ack 40 ------- 2 5.0 1.0 2 34
+ 0.10125 0 2 cbr 210 ------- 1 0.0 4.0 27 35
- 0.10125 0 2 cbr 210 ------- 1 0.0 4.0 27 35
r 0.101328 3 4 cbr 210 ------- 1 0.0 4.0 10 14
r 0.102968 2 3 cbr 210 ------- 1 0.0 4.0 11 15
+ 0.102968 3 4 cbr 210 ------- 1 0.0 4.0 11 15
- 0.102968 3 4 cbr 210 ------- 1 0.0 4.0 11 15
- 0.103368 2 3 cbr 210 ------- 1 0.0 4.0 14 18
r 0.103418 0 2 cbr 210 ------- 1 0.0 4.0 27 35
+ 0.103418 2 3 cbr 210 ------- 1 0.0 4.0 27 35
+ 0.105 0 2 cbr 210 ------- 1 0.0 4.0 28 36
- 0.105 0 2 cbr 210 ------- 1 0.0 4.0 28 36
r 0.105528 3 4 cbr 210 ------- 1 0.0 4.0 11 15
r 0.107168 2 3 cbr 210 ------- 1 0.0 4.0 12 16
+ 0.107168 3 4 cbr 210 ------- 1 0.0 4.0 12 16
- 0.107168 3 4 cbr 210 ------- 1 0.0 4.0 12 16
r 0.107168 0 2 cbr 210 ------- 1 0.0 4.0 28 36
+ 0.107168 2 3 cbr 210 ------- 1 0.0 4.0 28 36
- 0.107568 2 3 cbr 210 ------- 1 0.0 4.0 15 19
+ 0.10875 0 2 cbr 210 ------- 1 0.0 4.0 29 37
- 0.10875 0 2 cbr 210 ------- 1 0.0 4.0 29 37
r 0.109096 3 2 ack 40 ------- 2 5.0 1.0 2 34
+ 0.109096 2 1 ack 40 ------- 2 5.0 1.0 2 34
- 0.109096 2 1 ack 40 ------- 2 5.0 1.0 2 34
r 0.109728 3 4 cbr 210 ------- 1 0.0 4.0 12 16
r 0.110918 0 2 cbr 210 ------- 1 0.0 4.0 29 37
+ 0.110918 2 3 cbr 210 ------- 1 0.0 4.0 29 37
r 0.111368 2 3 cbr 210 ------- 1 0.0 4.0 13 17
+ 0.111368 3 4 cbr 210 ------- 1 0.0 4.0 13 17
- 0.111368 3 4 cbr 210 ------- 1 0.0 4.0 13 17
- 0.111768 2 3 cbr 210 ------- 1 0.0 4.0 16 20
+ 0.1125 0 2 cbr 210 ------- 1 0.0 4.0 30 38
- 0.1125 0 2 cbr 210 ------- 1 0.0 4.0 30 38
r 0.113128 2 1 ack 40 ------- 2 5.0 1.0 2 34
+ 0.113128 1 2 tcp 1040 ------- 2 1.0 5.0 5 39
- 0.113128 1 2 tcp 1040 ------- 2 1.0 5.0 5 39
+ 0.113128 1 2 tcp 1040 ------- 2 1.0 5.0 6 40
r 0.113928 3 4 cbr 210 ------- 1 0.0 4.0 13 17
- 0.11396 1 2 tcp 1040 ------- 2 1.0 5.0 6 40
r 0.114668 0 2 cbr 210 ------- 1 0.0 4.0 30 38
+ 0.114668 2 3 cbr 210 ------- 1 0.0 4.0 30 38
r 0.115568 2 3 cbr 210 ------- 1 0.0 4.0 14 18
+ 0.115568 3 4 cbr 210 ------- 1 0.0 4.0 14 18
- 0.115568 3 4 cbr 210 ------- 1 0.0 4.0 14 18
- 0.115968 2 3 cbr 210 ------- 1 0.0 4.0 17 21
+ 0.11625 0 2 cbr 210 ------- 1 0.0 4.0 31 41
- 0.11625 0 2 cbr 210 ------- 1 0.0 4.0 31 41
r 0.11796 1 2 tcp 1040 ------- 2 1.0 5.0 5 39
+ 0.11796 2 3 tcp 1040 ------- 2 1.0 5.0 5 39
r 0.118128 3 4 cbr 210 ------- 1 0.0 4.0 14 18
r 0.118418 0 2 cbr 210 ------- 1 0.0 4.0 31 41
+ 0.118418 2 3 cbr 210 ------- 1 0.0 4.0 31 41
r 0.118792 1 2 tcp 1040 ------- 2 1.0 5.0 6 40
+ 0.118792 2 3 tcp 1040 ------- 2 1.0 5.0 6 40
r 0.119768 2 3 cbr 210 ------- 1 0.0 4.0 15 19
+ 0.119768 3 4 cbr 210 ------- 1 0.0 4.0 15 19
- 0.119768 3 4 cbr 210 ------- 1 0.0 4.0 15 19
+ 0.12 0 2 cbr 210 ------- 1 0.0 4.0 32 42
- 0.12 0 2 cbr 210 ------- 1 0.0 4.0 32 42
- 0.120168 2 3 cbr 210 ------- 1 0.0 4.0 18 22
r 0.122168 0 2 cbr 210 ------- 1 0.0 4.0 32 42
+ 0.122168 2 3 cbr 210 ------- 1 0.0 4.0 32 42
r 0.122328 3 4 cbr 210 ------- 1 0.0 4.0 15 19
+ 0.12375 0 2 cbr 210 ------- 1 0.0 4.0 33 43
- 0.12375 0 2 cbr 210 ------- 1 0.0 4.0 33 43
r 0.123968 2 3 cbr 210 ------- 1 0.0 4.0 16 20
+ 0.123968 3 4 cbr 210 ------- 1 0.0 4.0 16 20
- 0.123968 3 4 cbr 210 ------- 1 0.0 4.0 16 20
- 0.124368 2 3 cbr 210 ------- 1 0.0 4.0 19 23
r 0.125918 0 2 cbr 210 ------- 1 0.0 4.0 33 43
+ 0.125918 2 3 cbr 210 ------- 1 0.0 4.0 33 43
r 0.126528 3 4 cbr 210 ------- 1 0.0 4.0 16 20
+ 0.1275 0 2 cbr 210 ------- 1 0.0 4.0 34 44
- 0.1275 0 2 cbr 210 ------- 1 0.0 4.0 34 44
r 0.128168 2 3 cbr 210 ------- 1 0.0 4.0 17 21
+ 0.128168 3 4 cbr 210 ------- 1 0.0 4.0 17 21
- 0.128168 3 4 cbr 210 ------- 1 0.0 4.0 17 21
- 0.128568 2 3 cbr 210 ------- 1 0.0 4.0 20 24
r 0.129668 0 2 cbr 210 ------- 1 0.0 4.0 34 44
+ 0.129668 2 3 cbr 210 ------- 1 0.0 4.0 34 44
r 0.130728 3 4 cbr 210 ------- 1 0.0 4.0 17 21
+ 0.13125 0 2 cbr 210 ------- 1 0.0 4.0 35 45
- 0.13125 0 2 cbr 210 ------- 1 0.0 4.0 35 45
r 0.132368 2 3 cbr 210 ------- 1 0.0 4.0 18 22
+ 0.132368 3 4 cbr 210 ------- 1 0.0 4.0 18 22
- 0.132368 3 4 cbr 210 ------- 1 0.0 4.0 18 22
- 0.132768 2 3 cbr 210 ------- 1 0.0 4.0 21 26
r 0.133418 0 2 cbr 210 ------- 1 0.0 4.0 35 45
+ 0.133418 2 3 cbr 210 ------- 1 0.0 4.0 35 45
r 0.134928 3 4 cbr 210 ------- 1 0.0 4.0 18 22
+ 0.135 0 2 cbr 210 ------- 1 0.0 4.0 36 46
- 0.135 0 2 cbr 210 ------- 1 0.0 4.0 36 46
r 0.136568 2 3 cbr 210 ------- 1 0.0 4.0 19 23
+ 0.136568 3 4 cbr 210 ------- 1 0.0 4.0 19 23
- 0.136568 3 4 cbr 210 ------- 1 0.0 4.0 19 23
- 0.136968 2 3 cbr 210 ------- 1 0.0 4.0 22 27
r 0.137168 0 2 cbr 210 ------- 1 0.0 4.0 36 46
+ 0.137168 2 3 cbr 210 ------- 1 0.0 4.0 36 46
+ 0.13875 0 2 cbr 210 ------- 1 0.0 4.0 37 47
- 0.13875 0 2 cbr 210 ------- 1 0.0 4.0 37 47
r 0.139128 3 4 cbr 210 ------- 1 0.0 4.0 19 23
r 0.140768 2 3 cbr 210 ------- 1 0.0 4.0 20 24
+ 0.140768 3 4 cbr 210 ------- 1 0.0 4.0 20 24
- 0.140768 3 4 cbr 210 ------- 1 0.0 4.0 20 24
r 0.140918 0 2 cbr 210 ------- 1 0.0 4.0 37 47
+ 0.140918 2 3 cbr 210 ------- 1 0.0 4.0 37 47
- 0.141168 2 3 cbr 210 ------- 1 0.0 4.0 23 28
+ 0.1425 0 2 cbr 210 ------- 1 0.0 4.0 38 48
- 0.1425 0 2 cbr 210 ------- 1 0.0 4.0 38 48
r 0.143328 3 4 cbr 210 ------- 1 0.0 4.0 20 24
r 0.144668 0 2 cbr 210 ------- 1 0.0 4.0 38 48
+ 0.144668 2 3 cbr 210 ------- 1 0.0 4.0 38 48
r 0.144968 2 3 cbr 210 ------- 1 0.0 4.0 21 26
+ 0.144968 3 4 cbr 210 ------- 1 0.0 4.0 21 26
- 0.144968 3 4 cbr 210 ------- 1 0.0 4.0 21 26
- 0.145368 2 3 cbr 210 ------- 1 0.0 4.0 24 29
+ 0.14625 0 2 cbr 210 ------- 1 0.0 4.0 39 49
- 0.14625 0 2 cbr 210 ------- 1 0.0 4.0 39 49
r 0.147528 3 4 cbr 210 ------- 1 0.0 4.0 21 26
r 0.148418 0 2 cbr 210 ------- 1 0.0 4.0 39 49
+ 0.148418 2 3 cbr 210 ------- 1 0.0 4.0 39 49
r 0.149168 2 3 cbr 210 ------- 1 0.0 4.0 22 27
+ 0.149168 3 4 cbr 210 ------- 1 0.0 4.0 22 27
- 0.149168 3 4 cbr 210 ------- 1 0.0 4.0 22 27
- 0.149568 2 3 cbr 210 ------- 1 0.0 4.0 25 32
+ 0.15 0 2 cbr 210 ------- 1 0.0 4.0 40 50
- 0.15 0 2 cbr 210 ------- 1 0.0 4.0 40 50
r 0.151728 3 4 cbr 210 ------- 1 0.0 4.0 22 27
r 0.152168 0 2 cbr 210 ------- 1 0.0 4.0 40 50
+ 0.152168 2 3 cbr 210 ------- 1 0.0 4.0 40 50
r 0.153368 2 3 cbr 210 ------- 1 0.0 4.0 23 28
+ 0.153368 3 4 cbr 210 ------- 1 0.0 4.0 23 28
- 0.153368 3 4 cbr 210 ------- 1 0.0 4.0 23 28
+ 0.15375 0 2 cbr 210 ------- 1 0.0 4.0 41 51
- 0.15375 0 2 cbr 210 ------- 1 0.0 4.0 41 51
- 0.153768 2 3 tcp 1040 ------- 2 1.0 5.0 3 30
r 0.155918 0 2 cbr 210 ------- 1 0.0 4.0 41 51
+ 0.155918 2 3 cbr 210 ------- 1 0.0 4.0 41 51
r 0.155928 3 4 cbr 210 ------- 1 0.0 4.0 23 28
+ 0.1575 0 2 cbr 210 ------- 1 0.0 4.0 42 52
- 0.1575 0 2 cbr 210 ------- 1 0.0 4.0 42 52
r 0.157568 2 3 cbr 210 ------- 1 0.0 4.0 24 29
+ 0.157568 3 4 cbr 210 ------- 1 0.0 4.0 24 29
- 0.157568 3 4 cbr 210 ------- 1 0.0 4.0 24 29
r 0.159668 0 2 cbr 210 ------- 1 0.0 4.0 42 52
+ 0.159668 2 3 cbr 210 ------- 1 0.0 4.0 42 52
r 0.160128 3 4 cbr 210 ------- 1 0.0 4.0 24 29
+ 0.16125 0 2 cbr 210 ------- 1 0.0 4.0 43 53
- 0.16125 0 2 cbr 210 ------- 1 0.0 4.0 43 53
r 0.161768 2 3 cbr 210 ------- 1 0.0 4.0 25 32
+ 0.161768 3 4 cbr 210 ------- 1 0.0 4.0 25 32
- 0.161768 3 4 cbr 210 ------- 1 0.0 4.0 25 32
r 0.163418 0 2 cbr 210 ------- 1 0.0 4.0 43 53
+ 0.163418 2 3 cbr 210 ------- 1 0.0 4.0 43 53
r 0.164328 3 4 cbr 210 ------- 1 0.0 4.0 25 32
+ 0.165 0 2 cbr 210 ------- 1 0.0 4.0 44 54
- 0.165 0 2 cbr 210 ------- 1 0.0 4.0 44 54
r 0.167168 0 2 cbr 210 ------- 1 0.0 4.0 44 54
+ 0.167168 2 3 cbr 210 ------- 1 0.0 4.0 44 54
+ 0.16875 0 2 cbr 210 ------- 1 0.0 4.0 45 55
- 0.16875 0 2 cbr 210 ------- 1 0.0 4.0 45 55
r 0.170918 0 2 cbr 210 ------- 1 0.0 4.0 45 55
+ 0.170918 2 3 cbr 210 ------- 1 0.0 4.0 45 55
+ 0.1725 0 2 cbr 210 ------- 1 0.0 4.0 46 56
- 0.1725 0 2 cbr 210 ------- 1 0.0 4.0 46 56
- 0.174568 2 3 tcp 1040 ------- 2 1.0 5.0 4 31
r 0.174668 0 2 cbr 210 ------- 1 0.0 4.0 46 56
+ 0.174668 2 3 cbr 210 ------- 1 0.0 4.0 46 56
+ 0.17625 0 2 cbr 210 ------- 1 0.0 4.0 47 57
- 0.17625 0 2 cbr 210 ------- 1 0.0 4.0 47 57
r 0.178418 0 2 cbr 210 ------- 1 0.0 4.0 47 57
+ 0.178418 2 3 cbr 210 ------- 1 0.0 4.0 47 57
+ 0.18 0 2 cbr 210 ------- 1 0.0 4.0 48 58
- 0.18 0 2 cbr 210 ------- 1 0.0 4.0 48 58
r 0.182168 0 2 cbr 210 ------- 1 0.0 4.0 48 58
+ 0.182168 2 3 cbr 210 ------- 1 0.0 4.0 48 58
r 0.182568 2 3 tcp 1040 ------- 2 1.0 5.0 3 30
+ 0.182568 3 5 tcp 1040 ------- 2 1.0 5.0 3 30
- 0.182568 3 5 tcp 1040 ------- 2 1.0 5.0 3 30
+ 0.18375 0 2 cbr 210 ------- 1 0.0 4.0 49 59
- 0.18375 0 2 cbr 210 ------- 1 0.0 4.0 49 59
r 0.185918 0 2 cbr 210 ------- 1 0.0 4.0 49 59
+ 0.185918 2 3 cbr 210 ------- 1 0.0 4.0 49 59
r 0.186232 3 5 tcp 1040 ------- 2 1.0 5.0 3 30
+ 0.186232 5 3 ack 40 ------- 2 5.0 1.0 3 60
- 0.186232 5 3 ack 40 ------- 2 5.0 1.0 3 60
+ 0.1875 0 2 cbr 210 ------- 1 0.0 4.0 50 61
- 0.1875 0 2 cbr 210 ------- 1 0.0 4.0 50 61
r 0.188296 5 3 ack 40 ------- 2 5.0 1.0 3 60
+ 0.188296 3 2 ack 40 ------- 2 5.0 1.0 3 60
- 0.188296 3 2 ack 40 ------- 2 5.0 1.0 3 60
r 0.189668 0 2 cbr 210 ------- 1 0.0 4.0 50 61
+ 0.189668 2 3 cbr 210 ------- 1 0.0 4.0 50 61
+ 0.19125 0 2 cbr 210 ------- 1 0.0 4.0 51 62
- 0.19125 0 2 cbr 210 ------- 1 0.0 4.0 51 62
r 0.193418 0 2 cbr 210 ------- 1 0.0 4.0 51 62
+ 0.193418 2 3 cbr 210 ------- 1 0.0 4.0 51 62
+ 0.195 0 2 cbr 210 ------- 1 0.0 4.0 52 63
- 0.195 0 2 cbr 210 ------- 1 0.0 4.0 52 63
- 0.195368 2 3 cbr 210 ------- 1 0.0 4.0 26 33
r 0.197096 3 2 ack 40 ------- 2 5.0 1.0 3 60
+ 0.197096 2 1 ack 40 ------- 2 5.0 1.0 3 60
- 0.197096 2 1 ack 40 ------- 2 5.0 1.0 3 60
r 0.197168 0 2 cbr 210 ------- 1 0.0 4.0 52 63
+ 0.197168 2 3 cbr 210 ------- 1 0.0 4.0 52 63
+ 0.19875 0 2 cbr 210 ------- 1 0.0 4.0 53 64
- 0.19875 0 2 cbr 210 ------- 1 0.0 4.0 53 64
- 0.199568 2 3 cbr 210 ------- 1 0.0 4.0 27 35
r 0.200918 0 2 cbr 210 ------- 1 0.0 4.0 53 64
+ 0.200918 2 3 cbr 210 ------- 1 0.0 4.0 53 64
r 0.201128 2 1 ack 40 ------- 2 5.0 1.0 3 60
+ 0.201128 1 2 tcp 1040 ------- 2 1.0 5.0 7 65
- 0.201128 1 2 tcp 1040 ------- 2 1.0 5.0 7 65
+ 0.201128 1 2 tcp 1040 ------- 2 1.0 5.0 8 66
- 0.20196 1 2 tcp 1040 ------- 2 1.0 5.0 8 66
+ 0.2025 0 2 cbr 210 ------- 1 0.0 4.0 54 67
- 0.2025 0 2 cbr 210 ------- 1 0.0 4.0 54 67
r 0.203368 2 3 tcp 1040 ------- 2 1.0 5.0 4 31
+ 0.203368 3 5 tcp 1040 ------- 2 1.0 5.0 4 31
- 0.203368 3 5 tcp 1040 ------- 2 1.0 5.0 4 31
- 0.203768 2 3 cbr 210 ------- 1 0.0 4.0 28 36
r 0.204668 0 2 cbr 210 ------- 1 0.0 4.0 54 67
+ 0.204668 2 3 cbr 210 ------- 1 0.0 4.0 54 67
r 0.20596 1 2 tcp 1040 ------- 2 1.0 5.0 7 65
+ 0.20596 2 3 tcp 1040 ------- 2 1.0 5.0 7 65
+ 0.20625 0 2 cbr 210 ------- 1 0.0 4.0 55 68
- 0.20625 0 2 cbr 210 ------- 1 0.0 4.0 55 68
r 0.206792 1 2 tcp 1040 ------- 2 1.0 5.0 8 66
+ 0.206792 2 3 tcp 1040 ------- 2 1.0 5.0 8 66
r 0.207032 3 5 tcp 1040 ------- 2 1.0 5.0 4 31
+ 0.207032 5 3 ack 40 ------- 2 5.0 1.0 4 69
- 0.207032 5 3 ack 40 ------- 2 5.0 1.0 4 69
r 0.207568 2 3 cbr 210 ------- 1 0.0 4.0 26 33
+ 0.207568 3 4 cbr 210 ------- 1 0.0 4.0 26 33
- 0.207568 3 4 cbr 210 ------- 1 0.0 4.0 26 33
- 0.207968 2 3 cbr 210 ------- 1 0.0 4.0 29 37
r 0.208418 0 2 cbr 210 ------- 1 0.0 4.0 55 68
+ 0.208418 2 3 cbr 210 ------- 1 0.0 4.0 55 68
r 0.209096 5 3 ack 40 ------- 2 5.0 1.0 4 69
+ 0.209096 3 2 ack 40 ------- 2 5.0 1.0 4 69
- 0.209096 3 2 ack 40 ------- 2 5.0 1.0 4 69
+ 0.21 0 2 cbr 210 ------- 1 0.0 4.0 56 70
- 0.21 0 2 cbr 210 ------- 1 0.0 4.0 56 70
r 0.210128 3 4 cbr 210 ------- 1 0.0 4.0 26 33
r 0.211768 2 3 cbr 210 ------- 1 0.0 4.0 27 35
+ 0.211768 3 4 cbr 210 ------- 1 0.0 4.0 27 35
- 0.211768 3 4 cbr 210 ------- 1 0.0 4.0 27 35
- 0.212168 2 3 cbr 210 ------- 1 0.0 4.0 30 38
r 0.212168 0 2 cbr 210 ------- 1 0.0 4.0 56 70
+ 0.212168 2 3 cbr 210 ------- 1 0.0 4.0 56 70
+ 0.21375 0 2 cbr 210 ------- 1 0.0 4.0 57 71
- 0.21375 0 2 cbr 210 ------- 1 0.0 4.0 57 71
r 0.214328 3 4 cbr 210 ------- 1 0.0 4.0 27 35
r 0.215918 0 2 cbr 210 ------- 1 0.0 4.0 57 71
+ 0.215918 2 3 cbr 210 ------- 1 0.0 4.0 57 71
r 0.215968 2 3 cbr 210 ------- 1 0.0 4.0 28 36
+ 0.215968 3 4 cbr 210 ------- 1 0.0 4.0 28 36
- 0.215968 3 4 cbr 210 ------- 1 0.0 4.0 28 36
- 0.216368 2 3 tcp 1040 ------- 2 1.0 5.0 5 39
+ 0.2175 0 2 cbr 210 ------- 1 0.0 4.0 58 72
- 0.2175 0 2 cbr 210 ------- 1 0.0 4.0 58 72
r 0.217896 3 2 ack 40 ------- 2 5.0 1.0 4 69
+ 0.217896 2 1 ack 40 ------- 2 5.0 1.0 4 69
- 0.217896 2 1 ack 40 ------- 2 5.0 1.0 4 69
r 0.218528 3 4 cbr 210 ------- 1 0.0 4.0 28 36
r 0.219668 0 2 cbr 210 ------- 1 0.0 4.0 58 72
+ 0.219668 2 3 cbr 210 ------- 1 0.0 4.0 58 72
r 0.220168 2 3 cbr 210 ------- 1 0.0 4.0 29 37
+ 0.220168 3 4 cbr 210 ------- 1 0.0 4.0 29 37
- 0.220168 3 4 cbr 210 ------- 1 0.0 4.0 29 37
+ 0.22125 0 2 cbr 210 ------- 1 0.0 4.0 59 73
- 0.22125 0 2 cbr 210 ------- 1 0.0 4.0 59 73
r 0.221928 2 1 ack 40 ------- 2 5.0 1.0 4 69
+ 0.221928 1 2 tcp 1040 ------- 2 1.0 5.0 9 74
- 0.221928 1 2 tcp 1040 ------- 2 1.0 5.0 9 74
+ 0.221928 1 2 tcp 1040 ------- 2 1.0 5.0 10 75
r 0.222728 3 4 cbr 210 ------- 1 0.0 4.0 29 37
- 0.22276 1 2 tcp 1040 ------- 2 1.0 5.0 10 75
r 0.223418 0 2 cbr 210 ------- 1 0.0 4.0 59 73
+ 0.223418 2 3 cbr 210 ------- 1 0.0 4.0 59 73
r 0.224368 2 3 cbr 210 ------- 1 0.0 4.0 30 38
+ 0.224368 3 4 cbr 210 ------- 1 0.0 4.0 30 38
- 0.224368 3 4 cbr 210 ------- 1 0.0 4.0 30 38
+ 0.225 0 2 cbr 210 ------- 1 0.0 4.0 60 76
- 0.225 0 2 cbr 210 ------- 1 0.0 4.0 60 76
r 0.22676 1 2 tcp 1040 ------- 2 1.0 5.0 9 74
+ 0.22676 2 3 tcp 1040 ------- 2 1.0 5.0 9 74
r 0.226928 3 4 cbr 210 ------- 1 0.0 4.0 30 38
r 0.227168 0 2 cbr 210 ------- 1 0.0 4.0 60 76
+ 0.227168 2 3 cbr 210 ------- 1 0.0 4.0 60 76
r 0.227592 1 2 tcp 1040 ------- 2 1.0 5.0 10 75
+ 0.227592 2 3 tcp 1040 ------- 2 1.0 5.0 10 75
+ 0.22875 0 2 cbr 210 ------- 1 0.0 4.0 61 77
- 0.22875 0 2 cbr 210 ------- 1 0.0 4.0 61 77
r 0.230918 0 2 cbr 210 ------- 1 0.0 4.0 61 77
+ 0.230918 2 3 cbr 210 ------- 1 0.0 4.0 61 77
+ 0.2325 0 2 cbr 210 ------- 1 0.0 4.0 62 78
- 0.2325 0 2 cbr 210 ------- 1 0.0 4.0 62 78
r 0.234668 0 2 cbr 210 ------- 1 0.0 4.0 62 78
+ 0.234668 2 3 cbr 210 ------- 1 0.0 4.0 62 78
+ 0.23625 0 2 cbr 210 ------- 1 0.0 4.0 63 79
- 0.23625 0 2 cbr 210 ------- 1 0.0 4.0 63 79
- 0.237168 2 3 cbr 210 ------- 1 0.0 4.0 31 41
r 0.238418 0 2 cbr 210 ------- 1 0.0 4.0 63 79
+ 0.238418 2 3 cbr 210 ------- 1 0.0 4.0 63 79
+ 0.24 0 2 cbr 210 ------- 1 0.0 4.0 64 80
- 0.24 0 2 cbr 210 ------- 1 0.0 4.0 64 80
- 0.241368 2 3 tcp 1040 ------- 2 1.0 5.0 6 40
r 0.242168 0 2 cbr 210 ------- 1 0.0 4.0 64 80
+ 0.242168 2 3 cbr 210 ------- 1 0.0 4.0 64 80
+ 0.24375 0 2 cbr 210 ------- 1 0.0 4.0 65 81
- 0.24375 0 2 cbr 210 ------- 1 0.0 4.0 65 81
r 0.245168 2 3 tcp 1040 ------- 2 1.0 5.0 5 39
+ 0.245168 3 5 tcp 1040 ------- 2 1.0 5.0 5 39
- 0.245168 3 5 tcp 1040 ------- 2 1.0 5.0 5 39
r 0.245918 0 2 cbr 210 ------- 1 0.0 4.0 65 81
+ 0.245918 2 3 cbr 210 ------- 1 0.0 4.0 65 81
+ 0.2475 0 2 cbr 210 ------- 1 0.0 4.0 66 82
- 0.2475 0 2 cbr 210 ------- 1 0.0 4.0 66 82
r 0.248832 3 5 tcp 1040 ------- 2 1.0 5.0 5 39
+ 0.248832 5 3 ack 40 ------- 2 5.0 1.0 5 83
- 0.248832 5 3 ack 40 ------- 2 5.0 1.0 5 83
r 0.249368 2 3 cbr 210 ------- 1 0.0 4.0 31 41
+ 0.249368 3 4 cbr 210 ------- 1 0.0 4.0 31 41
- 0.249368 3 4 cbr 210 ------- 1 0.0 4.0 31 41
r 0.249668 0 2 cbr 210 ------- 1 0.0 4.0 66 82
+ 0.249668 2 3 cbr 210 ------- 1 0.0 4.0 66 82
r 0.250896 5 3 ack 40 ------- 2 5.0 1.0 5 83
+ 0.250896 3 2 ack 40 ------- 2 5.0 1.0 5 83
- 0.250896 3 2 ack 40 ------- 2 5.0 1.0 5 83
+ 0.25125 0 2 cbr 210 ------- 1 0.0 4.0 67 84
- 0.25125 0 2 cbr 210 ------- 1 0.0 4.0 67 84
r 0.251928 3 4 cbr 210 ------- 1 0.0 4.0 31 41
r 0.253418 0 2 cbr 210 ------- 1 0.0 4.0 67 84
+ 0.253418 2 3 cbr 210 ------- 1 0.0 4.0 67 84
+ 0.255 0 2 cbr 210 ------- 1 0.0 4.0 68 85
- 0.255 0 2 cbr 210 ------- 1 0.0 4.0 68 85
r 0.257168 0 2 cbr 210 ------- 1 0.0 4.0 68 85
+ 0.257168 2 3 cbr 210 ------- 1 0.0 4.0 68 85
+ 0.25875 0 2 cbr 210 ------- 1 0.0 4.0 69 86
- 0.25875 0 2 cbr 210 ------- 1 0.0 4.0 69 86
r 0.259696 3 2 ack 40 ------- 2 5.0 1.0 5 83
+ 0.259696 2 1 ack 40 ------- 2 5.0 1.0 5 83
- 0.259696 2 1 ack 40 ------- 2 5.0 1.0 5 83
r 0.260918 0 2 cbr 210 ------- 1 0.0 4.0 69 86
+ 0.260918 2 3 cbr 210 ------- 1 0.0 4.0 69 86
- 0.262168 2 3 cbr 210 ------- 1 0.0 4.0 32 42
+ 0.2625 0 2 cbr 210 ------- 1 0.0 4.0 70 87
- 0.2625 0 2 cbr 210 ------- 1 0.0 4.0 70 87
r 0.263728 2 1 ack 40 ------- 2 5.0 1.0 5 83
+ 0.263728 1 2 tcp 1040 ------- 2 1.0 5.0 11 88
- 0.263728 1 2 tcp 1040 ------- 2 1.0 5.0 11 88
+ 0.263728 1 2 tcp 1040 ------- 2 1.0 5.0 12 89
- 0.26456 1 2 tcp 1040 ------- 2 1.0 5.0 12 89
r 0.264668 0 2 cbr 210 ------- 1 0.0 4.0 70 87
+ 0.264668 2 3 cbr 210 ------- 1 0.0 4.0 70 87
+ 0.26625 0 2 cbr 210 ------- 1 0.0 4.0 71 90
- 0.26625 0 2 cbr 210 ------- 1 0.0 4.0 71 90
- 0.266368 2 3 cbr 210 ------- 1 0.0 4.0 33 43
r 0.268418 0 2 cbr 210 ------- 1 0.0 4.0 71 90
+ 0.268418 2 3 cbr 210 ------- 1 0.0 4.0 71 90
r 0.26856 1 2 tcp 1040 ------- 2 1.0 5.0 11 88
+ 0.26856 2 3 tcp 1040 ------- 2 1.0 5.0 11 88
r 0.269392 1 2 tcp 1040 ------- 2 1.0 5.0 12 89
+ 0.269392 2 3 tcp 1040 ------- 2 1.0 5.0 12 89
+ 0.27 0 2 cbr 210 ------- 1 0.0 4.0 72 91
- 0.27 0 2 cbr 210 ------- 1 0.0 4.0 72 91
r 0.270168 2 3 tcp 1040 ------- 2 1.0 5.0 6 40
+ 0.270168 3 5 tcp 1040 ------- 2 1.0 5.0 6 40
- 0.270168 3 5 tcp 1040 ------- 2 1.0 5.0 6 40
- 0.270568 2 3 cbr 210 ------- 1 0.0 4.0 34 44
r 0.272168 0 2 cbr 210 ------- 1 0.0 4.0 72 91
+ 0.272168 2 3 cbr 210 ------- 1 0.0 4.0 72 91
+ 0.27375 0 2 cbr 210 ------- 1 0.0 4.0 73 92
- 0.27375 0 2 cbr 210 ------- 1 0.0 4.0 73 92
r 0.273832 3 5 tcp 1040 ------- 2 1.0 5.0 6 40
+ 0.273832 5 3 ack 40 ------- 2 5.0 1.0 6 93
- 0.273832 5 3 ack 40 ------- 2 5.0 1.0 6 93
r 0.274368 2 3 cbr 210 ------- 1 0.0 4.0 32 42
+ 0.274368 3 4 cbr 210 ------- 1 0.0 4.0 32 42
- 0.274368 3 4 cbr 210 ------- 1 0.0 4.0 32 42
- 0.274768 2 3 cbr 210 ------- 1 0.0 4.0 35 45
r 0.275896 5 3 ack 40 ------- 2 5.0 1.0 6 93
+ 0.275896 3 2 ack 40 ------- 2 5.0 1.0 6 93
- 0.275896 3 2 ack 40 ------- 2 5.0 1.0 6 93
r 0.275918 0 2 cbr 210 ------- 1 0.0 4.0 73 92
+ 0.275918 2 3 cbr 210 ------- 1 0.0 4.0 73 92
r 0.276928 3 4 cbr 210 ------- 1 0.0 4.0 32 42
+ 0.2775 0 2 cbr 210 ------- 1 0.0 4.0 74 94
- 0.2775 0 2 cbr 210 ------- 1 0.0 4.0 74 94
r 0.278568 2 3 cbr 210 ------- 1 0.0 4.0 33 43
+ 0.278568 3 4 cbr 210 ------- 1 0.0 4.0 33 43
- 0.278568 3 4 cbr 210 ------- 1 0.0 4.0 33 43
- 0.278968 2 3 cbr 210 ------- 1 0.0 4.0 36 46
r 0.279668 0 2 cbr 210 ------- 1 0.0 4.0 74 94
+ 0.279668 2 3 cbr 210 ------- 1 0.0 4.0 74 94
r 0.281128 3 4 cbr 210 ------- 1 0.0 4.0 33 43
+ 0.28125 0 2 cbr 210 ------- 1 0.0 4.0 75 95
- 0.28125 0 2 cbr 210 ------- 1 0.0 4.0 75 95
r 0.282768 2 3 cbr 210 ------- 1 0.0 4.0 34 44
+ 0.282768 3 4 cbr 210 ------- 1 0.0 4.0 34 44
- 0.282768 3 4 cbr 210 ------- 1 0.0 4.0 34 44
- 0.283168 2 3 cbr 210 ------- 1 0.0 4.0 37 47
r 0.283418 0 2 cbr 210 ------- 1 0.0 4.0 75 95
+ 0.283418 2 3 cbr 210 ------- 1 0.0 4.0 75 95
r 0.284696 3 2 ack 40 ------- 2 5.0 1.0 6 93
+ 0.284696 2 1 ack 40 ------- 2 5.0 1.0 6 93
- 0.284696 2 1 ack 40 ------- 2 5.0 1.0 6 93
+ 0.285 0 2 cbr 210 ------- 1 0.0 4.0 76 96
- 0.285 0 2 cbr 210 ------- 1 0.0 4.0 76 96
r 0.285328 3 4 cbr 210 ------- 1 0.0 4.0 34 44
r 0.286968 2 3 cbr 210 ------- 1 0.0 4.0 35 45
+ 0.286968 3 4 cbr 210 ------- 1 0.0 4.0 35 45
- 0.286968 3 4 cbr 210 ------- 1 0.0 4.0 35 45
r 0.287168 0 2 cbr 210 ------- 1 0.0 4.0 76 96
+ 0.287168 2 3 cbr 210 ------- 1 0.0 4.0 76 96
- 0.287368 2 3 cbr 210 ------- 1 0.0 4.0 38 48
r 0.288728 2 1 ack 40 ------- 2 5.0 1.0 6 93
+ 0.288728 1 2 tcp 1040 ------- 2 1.0 5.0 13 97
- 0.288728 1 2 tcp 1040 ------- 2 1.0 5.0 13 97
+ 0.288728 1 2 tcp 1040 ------- 2 1.0 5.0 14 98
+ 0.28875 0 2 cbr 210 ------- 1 0.0 4.0 77 99
- 0.28875 0 2 cbr 210 ------- 1 0.0 4.0 77 99
r 0.289528 3 4 cbr 210 ------- 1 0.0 4.0 35 45
- 0.28956 1 2 tcp 1040 ------- 2 1.0 5.0 14 98
r 0.290918 0 2 cbr 210 ------- 1 0.0 4.0 77 99
+ 0.290918 2 3 cbr 210 ------- 1 0.0 4.0 77 99
r 0.291168 2 3 cbr 210 ------- 1 0.0 4.0 36 46
+ 0.291168 3 4 cbr 210 ------- 1 0.0 4.0 36 46