+ 0 0 2 cbr 210 ------- 1 0.0 4.0 0 0
- 0 0 2 cbr 210 ------- 1 0.0 4.0 0 0
+ 0 1 2 tcp 40 ------- 2 1.0 5.0 0 1
- 0 1 2 tcp 40 ------- 2 1.0 5.0 0 1
r 0.002064 1 2 tcp 40 ------- 2 1.0 5.0 0 1
+ 0.002064 2 3 tcp 40 ------- 2 1.0 5.0 0 1
- 0.002064 2 3 tcp 40 ------- 2 1.0 5.0 0 1
r 0.002168 0 2 cbr 210 ------- 1 0.0 4.0 0 0
+ 0.002168 2 3 cbr 210 ------- 1 0.0 4.0 0 0
- 0.002384 2 3 cbr 210 ------- 1 0.0 4.0 0 0
+ 0.00375 0 2 cbr 210 ------- 1 0.0 4.0 1 2
- 0.00375 0 2 cbr 210 ------- 1 0.0 4.0 1 2
r 0.005918 0 2 cbr 210 ------- 1 0.0 4.0 1 2
+ 0.005918 2 3 cbr 210 ------- 1 0.0 4.0 1 2
- 0.005918 2 3 cbr 210 ------- 1 0.0 4.0 1 2
+ 0.0075 0 2 cbr 210 ------- 1 0.0 4.0 2 3
- 0.0075 0 2 cbr 210 ------- 1 0.0 4.0 2 3
r 0.009668 0 2 cbr 210 ------- 1 0.0 4.0 2 3
+ 0.009668 2 3 cbr 210 ------- 1 0.0 4.0 2 3
- 0.009668 2 3 cbr 210 ------- 1 0.0 4.0 2 3
r 0.010384 2 3 tcp 40 ------- 2 1.0 5.0 0 1
+ 0.010384 3 5 tcp 40 ------- 2 1.0 5.0 0 1
- 0.010384 3 5 tcp 40 ------- 2 1.0 5.0 0 1
+ 0.01125 0 2 cbr 210 ------- 1 0.0 4.0 3 4
- 0.01125 0 2 cbr 210 ------- 1 0.0 4.0 3 4
r 0.012064 2 3 cbr 210 ------- 1 0.0 4.0 0 0
+ 0.012064 3 4 cbr 210 ------- 1 0.0 4.0 0 0
- 0.012064 3 4 cbr 210 ------- 1 0.0 4.0 0 0
r 0.012448 3 5 tcp 40 ------- 2 1.0 5.0 0 1
+ 0.012448 5 3 ack 40 ------- 2 5.0 1.0 0 5
- 0.012448 5 3 ack 40 ------- 2 5.0 1.0 0 5
r 0.013418 0 2 cbr 210 ------- 1 0.0 4.0 3 4
+ 0.013418 2 3 cbr 210 ------- 1 0.0 4.0 3 4
- 0.013418 2 3 cbr 210 ------- 1 0.0 4.0 3 4
r 0.0144 3 4 cbr 210 ------- 1 0.0 4.0 0 0
r 0.014512 5 3 ack 40 ------- 2 5.0 1.0 0 5
+ 0.014512 3 2 ack 40 ------- 2 5.0 1.0 0 5
- 0.014512 3 2 ack 40 ------- 2 5.0 1.0 0 5
+ 0.015 0 2 cbr 210 ------- 1 0.0 4.0 4 6
- 0.015 0 2 cbr 210 ------- 1 0.0 4.0 4 6
r 0.015598 2 3 cbr 210 ------- 1 0.0 4.0 1 2
+ 0.015598 3 4 cbr 210 ------- 1 0.0 4.0 1 2
- 0.015598 3 4 cbr 210 ------- 1 0.0 4.0 1 2
r 0.017168 0 2 cbr 210 ------- 1 0.0 4.0 4 6
+ 0.017168 2 3 cbr 210 ------- 1 0.0 4.0 4 6
- 0.017168 2 3 cbr 210 ------- 1 0.0 4.0 4 6
r 0.017934 3 4 cbr 210 ------- 1 0.0 4.0 1 2
+ 0.01875 0 2 cbr 210 ------- 1 0.0 4.0 5 7
- 0.01875 0 2 cbr 210 ------- 1 0.0 4.0 5 7
r 0.019348 2 3 cbr 210 ------- 1 0.0 4.0 2 3
+ 0.019348 3 4 cbr 210 ------- 1 0.0 4.0 2 3
- 0.019348 3 4 cbr 210 ------- 1 0.0 4.0 2 3
r 0.020918 0 2 cbr 210 ------- 1 0.0 4.0 5 7
+ 0.020918 2 3 cbr 210 ------- 1 0.0 4.0 5 7
- 0.020918 2 3 cbr 210 ------- 1 0.0 4.0 5 7
r 0.021684 3 4 cbr 210 ------- 1 0.0 4.0 2 3
+ 0.0225 0 2 cbr 210 ------- 1 0.0 4.0 6 8
- 0.0225 0 2 cbr 210 ------- 1 0.0 4.0 6 8
r 0.022832 3 2 ack 40 ------- 2 5.0 1.0 0 5
+ 0.022832 2 1 ack 40 ------- 2 5.0 1.0 0 5
- 0.022832 2 1 ack 40 ------- 2 5.0 1.0 0 5
r 0.023098 2 3 cbr 210 ------- 1 0.0 4.0 3 4
+ 0.023098 3 4 cbr 210 ------- 1 0.0 4.0 3 4
- 0.023098 3 4 cbr 210 ------- 1 0.0 4.0 3 4
r 0.024668 0 2 cbr 210 ------- 1 0.0 4.0 6 8
+ 0.024668 2 3 cbr 210 ------- 1 0.0 4.0 6 8
- 0.024668 2 3 cbr 210 ------- 1 0.0 4.0 6 8
r 0.024896 2 1 ack 40 ------- 2 5.0 1.0 0 5
+ 0.024896 1 2 tcp 1040 ------- 2 1.0 5.0 1 9
- 0.024896 1 2 tcp 1040 ------- 2 1.0 5.0 1 9
+ 0.024896 1 2 tcp 1040 ------- 2 1.0 5.0 2 10
r 0.025434 3 4 cbr 210 ------- 1 0.0 4.0 3 4
+ 0.02625 0 2 cbr 210 ------- 1 0.0 4.0 7 11
- 0.02625 0 2 cbr 210 ------- 1 0.0 4.0 7 11
- 0.02656 1 2 tcp 1040 ------- 2 1.0 5.0 2 10
r 0.026848 2 3 cbr 210 ------- 1 0.0 4.0 4 6
+ 0.026848 3 4 cbr 210 ------- 1 0.0 4.0 4 6
- 0.026848 3 4 cbr 210 ------- 1 0.0 4.0 4 6
r 0.028418 0 2 cbr 210 ------- 1 0.0 4.0 7 11
+ 0.028418 2 3 cbr 210 ------- 1 0.0 4.0 7 11
- 0.028418 2 3 cbr 210 ------- 1 0.0 4.0 7 11
r 0.02856 1 2 tcp 1040 ------- 2 1.0 5.0 1 9
+ 0.02856 2 3 tcp 1040 ------- 2 1.0 5.0 1 9
r 0.029184 3 4 cbr 210 ------- 1 0.0 4.0 4 6
+ 0.03 0 2 cbr 210 ------- 1 0.0 4.0 8 12
- 0.03 0 2 cbr 210 ------- 1 0.0 4.0 8 12
- 0.030098 2 3 tcp 1040 ------- 2 1.0 5.0 1 9
r 0.030224 1 2 tcp 1040 ------- 2 1.0 5.0 2 10
+ 0.030224 2 3 tcp 1040 ------- 2 1.0 5.0 2 10
r 0.030598 2 3 cbr 210 ------- 1 0.0 4.0 5 7
+ 0.030598 3 4 cbr 210 ------- 1 0.0 4.0 5 7
- 0.030598 3 4 cbr 210 ------- 1 0.0 4.0 5 7
r 0.032168 0 2 cbr 210 ------- 1 0.0 4.0 8 12
+ 0.032168 2 3 cbr 210 ------- 1 0.0 4.0 8 12
r 0.032934 3 4 cbr 210 ------- 1 0.0 4.0 5 7
+ 0.03375 0 2 cbr 210 ------- 1 0.0 4.0 9 13
- 0.03375 0 2 cbr 210 ------- 1 0.0 4.0 9 13
r 0.034348 2 3 cbr 210 ------- 1 0.0 4.0 6 8
+ 0.034348 3 4 cbr 210 ------- 1 0.0 4.0 6 8
- 0.034348 3 4 cbr 210 ------- 1 0.0 4.0 6 8
r 0.035918 0 2 cbr 210 ------- 1 0.0 4.0 9 13
+ 0.035918 2 3 cbr 210 ------- 1 0.0 4.0 9 13
r 0.036684 3 4 cbr 210 ------- 1 0.0 4.0 6 8
+ 0.0375 0 2 cbr 210 ------- 1 0.0 4.0 10 14
- 0.0375 0 2 cbr 210 ------- 1 0.0 4.0 10 14
r 0.038098 2 3 cbr 210 ------- 1 0.0 4.0 7 11
+ 0.038098 3 4 cbr 210 ------- 1 0.0 4.0 7 11
- 0.038098 3 4 cbr 210 ------- 1 0.0 4.0 7 11
- 0.038418 2 3 tcp 1040 ------- 2 1.0 5.0 2 10
r 0.039668 0 2 cbr 210 ------- 1 0.0 4.0 10 14
+ 0.039668 2 3 cbr 210 ------- 1 0.0 4.0 10 14
r 0.040434 3 4 cbr 210 ------- 1 0.0 4.0 7 11
+ 0.04125 0 2 cbr 210 ------- 1 0.0 4.0 11 15
- 0.04125 0 2 cbr 210 ------- 1 0.0 4.0 11 15
r 0.043418 0 2 cbr 210 ------- 1 0.0 4.0 11 15
+ 0.043418 2 3 cbr 210 ------- 1 0.0 4.0 11 15
+ 0.045 0 2 cbr 210 ------- 1 0.0 4.0 12 16
- 0.045 0 2 cbr 210 ------- 1 0.0 4.0 12 16
r 0.046418 2 3 tcp 1040 ------- 2 1.0 5.0 1 9
+ 0.046418 3 5 tcp 1040 ------- 2 1.0 5.0 1 9
- 0.046418 3 5 tcp 1040 ------- 2 1.0 5.0 1 9
- 0.046738 2 3 cbr 210 ------- 1 0.0 4.0 8 12
r 0.047168 0 2 cbr 210 ------- 1 0.0 4.0 12 16
+ 0.047168 2 3 cbr 210 ------- 1 0.0 4.0 12 16
- 0.048418 2 3 cbr 210 ------- 1 0.0 4.0 9 13
+ 0.04875 0 2 cbr 210 ------- 1 0.0 4.0 13 17
- 0.04875 0 2 cbr 210 ------- 1 0.0 4.0 13 17
r 0.050082 3 5 tcp 1040 ------- 2 1.0 5.0 1 9
+ 0.050082 5 3 ack 40 ------- 2 5.0 1.0 1 18
- 0.050082 5 3 ack 40 ------- 2 5.0 1.0 1 18
- 0.050098 2 3 cbr 210 ------- 1 0.0 4.0 10 14
r 0.050918 0 2 cbr 210 ------- 1 0.0 4.0 13 17
+ 0.050918 2 3 cbr 210 ------- 1 0.0 4.0 13 17
- 0.051778 2 3 cbr 210 ------- 1 0.0 4.0 11 15
r 0.052146 5 3 ack 40 ------- 2 5.0 1.0 1 18
+ 0.052146 3 2 ack 40 ------- 2 5.0 1.0 1 18
- 0.052146 3 2 ack 40 ------- 2 5.0 1.0 1 18
+ 0.0525 0 2 cbr 210 ------- 1 0.0 4.0 14 19
- 0.0525 0 2 cbr 210 ------- 1 0.0 4.0 14 19
- 0.053458 2 3 cbr 210 ------- 1 0.0 4.0 12 16
r 0.054668 0 2 cbr 210 ------- 1 0.0 4.0 14 19
+ 0.054668 2 3 cbr 210 ------- 1 0.0 4.0 14 19
r 0.054738 2 3 tcp 1040 ------- 2 1.0 5.0 2 10
+ 0.054738 3 5 tcp 1040 ------- 2 1.0 5.0 2 10
- 0.054738 3 5 tcp 1040 ------- 2 1.0 5.0 2 10
- 0.055138 2 3 cbr 210 ------- 1 0.0 4.0 13 17
+ 0.05625 0 2 cbr 210 ------- 1 0.0 4.0 15 20
- 0.05625 0 2 cbr 210 ------- 1 0.0 4.0 15 20
r 0.056418 2 3 cbr 210 ------- 1 0.0 4.0 8 12
+ 0.056418 3 4 cbr 210 ------- 1 0.0 4.0 8 12
- 0.056418 3 4 cbr 210 ------- 1 0.0 4.0 8 12
- 0.056818 2 3 cbr 210 ------- 1 0.0 4.0 14 19
r 0.058098 2 3 cbr 210 ------- 1 0.0 4.0 9 13
+ 0.058098 3 4 cbr 210 ------- 1 0.0 4.0 9 13
- 0.058098 3 4 cbr 210 ------- 1 0.0 4.0 9 13
r 0.058402 3 5 tcp 1040 ------- 2 1.0 5.0 2 10
+ 0.058402 5 3 ack 40 ------- 2 5.0 1.0 2 21
- 0.058402 5 3 ack 40 ------- 2 5.0 1.0 2 21
r 0.058418 0 2 cbr 210 ------- 1 0.0 4.0 15 20
+ 0.058418 2 3 cbr 210 ------- 1 0.0 4.0 15 20
- 0.058498 2 3 cbr 210 ------- 1 0.0 4.0 15 20
r 0.058754 3 4 cbr 210 ------- 1 0.0 4.0 8 12
r 0.059778 2 3 cbr 210 ------- 1 0.0 4.0 10 14
+ 0.059778 3 4 cbr 210 ------- 1 0.0 4.0 10 14
- 0.059778 3 4 cbr 210 ------- 1 0.0 4.0 10 14
+ 0.06 0 2 cbr 210 ------- 1 0.0 4.0 16 22
- 0.06 0 2 cbr 210 ------- 1 0.0 4.0 16 22
r 0.060434 3 4 cbr 210 ------- 1 0.0 4.0 9 13
r 0.060466 3 2 ack 40 ------- 2 5.0 1.0 1 18
+ 0.060466 2 1 ack 40 ------- 2 5.0 1.0 1 18
- 0.060466 2 1 ack 40 ------- 2 5.0 1.0 1 18
r 0.060466 5 3 ack 40 ------- 2 5.0 1.0 2 21
+ 0.060466 3 2 ack 40 ------- 2 5.0 1.0 2 21
- 0.060466 3 2 ack 40 ------- 2 5.0 1.0 2 21
r 0.061458 2 3 cbr 210 ------- 1 0.0 4.0 11 15
+ 0.061458 3 4 cbr 210 ------- 1 0.0 4.0 11 15
- 0.061458 3 4 cbr 210 ------- 1 0.0 4.0 11 15
r 0.062114 3 4 cbr 210 ------- 1 0.0 4.0 10 14
r 0.062168 0 2 cbr 210 ------- 1 0.0 4.0 16 22
+ 0.062168 2 3 cbr 210 ------- 1 0.0 4.0 16 22
- 0.062168 2 3 cbr 210 ------- 1 0.0 4.0 16 22
r 0.06253 2 1 ack 40 ------- 2 5.0 1.0 1 18
+ 0.06253 1 2 tcp 1040 ------- 2 1.0 5.0 3 23
- 0.06253 1 2 tcp 1040 ------- 2 1.0 5.0 3 23
+ 0.06253 1 2 tcp 1040 ------- 2 1.0 5.0 4 24
r 0.063138 2 3 cbr 210 ------- 1 0.0 4.0 12 16
+ 0.063138 3 4 cbr 210 ------- 1 0.0 4.0 12 16
- 0.063138 3 4 cbr 210 ------- 1 0.0 4.0 12 16
+ 0.06375 0 2 cbr 210 ------- 1 0.0 4.0 17 25
- 0.06375 0 2 cbr 210 ------- 1 0.0 4.0 17 25
r 0.063794 3 4 cbr 210 ------- 1 0.0 4.0 11 15
- 0.064194 1 2 tcp 1040 ------- 2 1.0 5.0 4 24
r 0.064818 2 3 cbr 210 ------- 1 0.0 4.0 13 17
+ 0.064818 3 4 cbr 210 ------- 1 0.0 4.0 13 17
- 0.064818 3 4 cbr 210 ------- 1 0.0 4.0 13 17
r 0.065474 3 4 cbr 210 ------- 1 0.0 4.0 12 16
r 0.065918 0 2 cbr 210 ------- 1 0.0 4.0 17 25
+ 0.065918 2 3 cbr 210 ------- 1 0.0 4.0 17 25
- 0.065918 2 3 cbr 210 ------- 1 0.0 4.0 17 25
r 0.066194 1 2 tcp 1040 ------- 2 1.0 5.0 3 23
+ 0.066194 2 3 tcp 1040 ------- 2 1.0 5.0 3 23
r 0.066498 2 3 cbr 210 ------- 1 0.0 4.0 14 19
+ 0.066498 3 4 cbr 210 ------- 1 0.0 4.0 14 19
- 0.066498 3 4 cbr 210 ------- 1 0.0 4.0 14 19
r 0.067154 3 4 cbr 210 ------- 1 0.0 4.0 13 17
+ 0.0675 0 2 cbr 210 ------- 1 0.0 4.0 18 26
- 0.0675 0 2 cbr 210 ------- 1 0.0 4.0 18 26
- 0.067598 2 3 tcp 1040 ------- 2 1.0 5.0 3 23
r 0.067858 1 2 tcp 1040 ------- 2 1.0 5.0 4 24
+ 0.067858 2 3 tcp 1040 ------- 2 1.0 5.0 4 24
r 0.068178 2 3 cbr 210 ------- 1 0.0 4.0 15 20
+ 0.068178 3 4 cbr 210 ------- 1 0.0 4.0 15 20
- 0.068178 3 4 cbr 210 ------- 1 0.0 4.0 15 20
r 0.068786 3 2 ack 40 ------- 2 5.0 1.0 2 21
+ 0.068786 2 1 ack 40 ------- 2 5.0 1.0 2 21
- 0.068786 2 1 ack 40 ------- 2 5.0 1.0 2 21
r 0.068834 3 4 cbr 210 ------- 1 0.0 4.0 14 19
r 0.069668 0 2 cbr 210 ------- 1 0.0 4.0 18 26
+ 0.069668 2 3 cbr 210 ------- 1 0.0 4.0 18 26
r 0.070514 3 4 cbr 210 ------- 1 0.0 4.0 15 20
r 0.07085 2 1 ack 40 ------- 2 5.0 1.0 2 21
+ 0.07085 1 2 tcp 1040 ------- 2 1.0 5.0 5 27
- 0.07085 1 2 tcp 1040 ------- 2 1.0 5.0 5 27
+ 0.07085 1 2 tcp 1040 ------- 2 1.0 5.0 6 28
+ 0.07125 0 2 cbr 210 ------- 1 0.0 4.0 19 29
- 0.07125 0 2 cbr 210 ------- 1 0.0 4.0 19 29
r 0.071848 2 3 cbr 210 ------- 1 0.0 4.0 16 22
+ 0.071848 3 4 cbr 210 ------- 1 0.0 4.0 16 22
- 0.071848 3 4 cbr 210 ------- 1 0.0 4.0 16 22
- 0.072514 1 2 tcp 1040 ------- 2 1.0 5.0 6 28
r 0.073418 0 2 cbr 210 ------- 1 0.0 4.0 19 29
+ 0.073418 2 3 cbr 210 ------- 1 0.0 4.0 19 29
r 0.074184 3 4 cbr 210 ------- 1 0.0 4.0 16 22
r 0.074514 1 2 tcp 1040 ------- 2 1.0 5.0 5 27
+ 0.074514 2 3 tcp 1040 ------- 2 1.0 5.0 5 27
+ 0.075 0 2 cbr 210 ------- 1 0.0 4.0 20 30
- 0.075 0 2 cbr 210 ------- 1 0.0 4.0 20 30
r 0.075598 2 3 cbr 210 ------- 1 0.0 4.0 17 25
+ 0.075598 3 4 cbr 210 ------- 1 0.0 4.0 17 25
- 0.075598 3 4 cbr 210 ------- 1 0.0 4.0 17 25
- 0.075918 2 3 tcp 1040 ------- 2 1.0 5.0 4 24
r 0.076178 1 2 tcp 1040 ------- 2 1.0 5.0 6 28
+ 0.076178 2 3 tcp 1040 ------- 2 1.0 5.0 6 28
r 0.077168 0 2 cbr 210 ------- 1 0.0 4.0 20 30
+ 0.077168 2 3 cbr 210 ------- 1 0.0 4.0 20 30
r 0.077934 3 4 cbr 210 ------- 1 0.0 4.0 17 25
+ 0.07875 0 2 cbr 210 ------- 1 0.0 4.0 21 31
- 0.07875 0 2 cbr 210 ------- 1 0.0 4.0 21 31
r 0.080918 0 2 cbr 210 ------- 1 0.0 4.0 21 31
+ 0.080918 2 3 cbr 210 ------- 1 0.0 4.0 21 31
+ 0.0825 0 2 cbr 210 ------- 1 0.0 4.0 22 32
- 0.0825 0 2 cbr 210 ------- 1 0.0 4.0 22 32
r 0.083918 2 3 tcp 1040 ------- 2 1.0 5.0 3 23
+ 0.083918 3 5 tcp 1040 ------- 2 1.0 5.0 3 23
- 0.083918 3 5 tcp 1040 ------- 2 1.0 5.0 3 23
- 0.084238 2 3 cbr 210 ------- 1 0.0 4.0 18 26
r 0.084668 0 2 cbr 210 ------- 1 0.0 4.0 22 32
+ 0.084668 2 3 cbr 210 ------- 1 0.0 4.0 22 32
- 0.085918 2 3 cbr 210 ------- 1 0.0 4.0 19 29
+ 0.08625 0 2 cbr 210 ------- 1 0.0 4.0 23 33
- 0.08625 0 2 cbr 210 ------- 1 0.0 4.0 23 33
r 0.087582 3 5 tcp 1040 ------- 2 1.0 5.0 3 23
+ 0.087582 5 3 ack 40 ------- 2 5.0 1.0 3 34
- 0.087582 5 3 ack 40 ------- 2 5.0 1.0 3 34
- 0.087598 2 3 tcp 1040 ------- 2 1.0 5.0 5 27
r 0.088418 0 2 cbr 210 ------- 1 0.0 4.0 23 33
+ 0.088418 2 3 cbr 210 ------- 1 0.0 4.0 23 33
r 0.089646 5 3 ack 40 ------- 2 5.0 1.0 3 34
+ 0.089646 3 2 ack 40 ------- 2 5.0 1.0 3 34
- 0.089646 3 2 ack 40 ------- 2 5.0 1.0 3 34
+ 0.09 0 2 cbr 210 ------- 1 0.0 4.0 24 35
- 0.09 0 2 cbr 210 ------- 1 0.0 4.0 24 35
r 0.092168 0 2 cbr 210 ------- 1 0.0 4.0 24 35
+ 0.092168 2 3 cbr 210 ------- 1 0.0 4.0 24 35
r 0.092238 2 3 tcp 1040 ------- 2 1.0 5.0 4 24
+ 0.092238 3 5 tcp 1040 ------- 2 1.0 5.0 4 24
- 0.092238 3 5 tcp 1040 ------- 2 1.0 5.0 4 24
+ 0.09375 0 2 cbr 210 ------- 1 0.0 4.0 25 36
- 0.09375 0 2 cbr 210 ------- 1 0.0 4.0 25 36
r 0.093918 2 3 cbr 210 ------- 1 0.0 4.0 18 26
+ 0.093918 3 4 cbr 210 ------- 1 0.0 4.0 18 26
- 0.093918 3 4 cbr 210 ------- 1 0.0 4.0 18 26
r 0.095598 2 3 cbr 210 ------- 1 0.0 4.0 19 29
+ 0.095598 3 4 cbr 210 ------- 1 0.0 4.0 19 29
- 0.095598 3 4 cbr 210 ------- 1 0.0 4.0 19 29
r 0.095902 3 5 tcp 1040 ------- 2 1.0 5.0 4 24
+ 0.095902 5 3 ack 40 ------- 2 5.0 1.0 4 37
- 0.095902 5 3 ack 40 ------- 2 5.0 1.0 4 37
- 0.095918 2 3 tcp 1040 ------- 2 1.0 5.0 6 28
r 0.095918 0 2 cbr 210 ------- 1 0.0 4.0 25 36
+ 0.095918 2 3 cbr 210 ------- 1 0.0 4.0 25 36
r 0.096254 3 4 cbr 210 ------- 1 0.0 4.0 18 26
+ 0.0975 0 2 cbr 210 ------- 1 0.0 4.0 26 38
- 0.0975 0 2 cbr 210 ------- 1 0.0 4.0 26 38
r 0.097934 3 4 cbr 210 ------- 1 0.0 4.0 19 29
r 0.097966 3 2 ack 40 ------- 2 5.0 1.0 3 34
+ 0.097966 2 1 ack 40 ------- 2 5.0 1.0 3 34
- 0.097966 2 1 ack 40 ------- 2 5.0 1.0 3 34
r 0.097966 5 3 ack 40 ------- 2 5.0 1.0 4 37
+ 0.097966 3 2 ack 40 ------- 2 5.0 1.0 4 37
- 0.097966 3 2 ack 40 ------- 2 5.0 1.0 4 37
r 0.099668 0 2 cbr 210 ------- 1 0.0 4.0 26 38
+ 0.099668 2 3 cbr 210 ------- 1 0.0 4.0 26 38
r 0.10003 2 1 ack 40 ------- 2 5.0 1.0 3 34
+ 0.10003 1 2 tcp 1040 ------- 2 1.0 5.0 7 39
- 0.10003 1 2 tcp 1040 ------- 2 1.0 5.0 7 39
+ 0.10003 1 2 tcp 1040 ------- 2 1.0 5.0 8 40
+ 0.10125 0 2 cbr 210 ------- 1 0.0 4.0 27 41
- 0.10125 0 2 cbr 210 ------- 1 0.0 4.0 27 41
- 0.101694 1 2 tcp 1040 ------- 2 1.0 5.0 8 40
r 0.103418 0 2 cbr 210 ------- 1 0.0 4.0 27 41
+ 0.103418 2 3 cbr 210 ------- 1 0.0 4.0 27 41
r 0.103694 1 2 tcp 1040 ------- 2 1.0 5.0 7 39
+ 0.103694 2 3 tcp 1040 ------- 2 1.0 5.0 7 39
r 0.103918 2 3 tcp 1040 ------- 2 1.0 5.0 5 27
+ 0.103918 3 5 tcp 1040 ------- 2 1.0 5.0 5 27
- 0.103918 3 5 tcp 1040 ------- 2 1.0 5.0 5 27
- 0.104238 2 3 cbr 210 ------- 1 0.0 4.0 20 30
+ 0.105 0 2 cbr 210 ------- 1 0.0 4.0 28 42
- 0.105 0 2 cbr 210 ------- 1 0.0 4.0 28 42
r 0.105358 1 2 tcp 1040 ------- 2 1.0 5.0 8 40
+ 0.105358 2 3 tcp 1040 ------- 2 1.0 5.0 8 40
- 0.105918 2 3 cbr 210 ------- 1 0.0 4.0 21 31
r 0.106286 3 2 ack 40 ------- 2 5.0 1.0 4 37
+ 0.106286 2 1 ack 40 ------- 2 5.0 1.0 4 37
- 0.106286 2 1 ack 40 ------- 2 5.0 1.0 4 37
r 0.107168 0 2 cbr 210 ------- 1 0.0 4.0 28 42
+ 0.107168 2 3 cbr 210 ------- 1 0.0 4.0 28 42
r 0.107582 3 5 tcp 1040 ------- 2 1.0 5.0 5 27
+ 0.107582 5 3 ack 40 ------- 2 5.0 1.0 5 43
- 0.107582 5 3 ack 40 ------- 2 5.0 1.0 5 43
- 0.107598 2 3 cbr 210 ------- 1 0.0 4.0 22 32
r 0.10835 2 1 ack 40 ------- 2 5.0 1.0 4 37
+ 0.10835 1 2 tcp 1040 ------- 2 1.0 5.0 9 44
- 0.10835 1 2 tcp 1040 ------- 2 1.0 5.0 9 44
+ 0.10835 1 2 tcp 1040 ------- 2 1.0 5.0 10 45
+ 0.10875 0 2 cbr 210 ------- 1 0.0 4.0 29 46
- 0.10875 0 2 cbr 210 ------- 1 0.0 4.0 29 46
- 0.109278 2 3 cbr 210 ------- 1 0.0 4.0 23 33
r 0.109646 5 3 ack 40 ------- 2 5.0 1.0 5 43
+ 0.109646 3 2 ack 40 ------- 2 5.0 1.0 5 43
- 0.109646 3 2 ack 40 ------- 2 5.0 1.0 5 43
- 0.110014 1 2 tcp 1040 ------- 2 1.0 5.0 10 45
r 0.110918 0 2 cbr 210 ------- 1 0.0 4.0 29 46
+ 0.110918 2 3 cbr 210 ------- 1 0.0 4.0 29 46
- 0.110958 2 3 cbr 210 ------- 1 0.0 4.0 24 35
r 0.112014 1 2 tcp 1040 ------- 2 1.0 5.0 9 44
+ 0.112014 2 3 tcp 1040 ------- 2 1.0 5.0 9 44
r 0.112238 2 3 tcp 1040 ------- 2 1.0 5.0 6 28
+ 0.112238 3 5 tcp 1040 ------- 2 1.0 5.0 6 28
- 0.112238 3 5 tcp 1040 ------- 2 1.0 5.0 6 28
+ 0.1125 0 2 cbr 210 ------- 1 0.0 4.0 30 47
- 0.1125 0 2 cbr 210 ------- 1 0.0 4.0 30 47
- 0.112638 2 3 cbr 210 ------- 1 0.0 4.0 25 36
r 0.113678 1 2 tcp 1040 ------- 2 1.0 5.0 10 45
+ 0.113678 2 3 tcp 1040 ------- 2 1.0 5.0 10 45
r 0.113918 2 3 cbr 210 ------- 1 0.0 4.0 20 30
+ 0.113918 3 4 cbr 210 ------- 1 0.0 4.0 20 30
- 0.113918 3 4 cbr 210 ------- 1 0.0 4.0 20 30
- 0.114318 2 3 cbr 210 ------- 1 0.0 4.0 26 38
r 0.114668 0 2 cbr 210 ------- 1 0.0 4.0 30 47
+ 0.114668 2 3 cbr 210 ------- 1 0.0 4.0 30 47
r 0.115598 2 3 cbr 210 ------- 1 0.0 4.0 21 31
+ 0.115598 3 4 cbr 210 ------- 1 0.0 4.0 21 31
- 0.115598 3 4 cbr 210 ------- 1 0.0 4.0 21 31
r 0.115902 3 5 tcp 1040 ------- 2 1.0 5.0 6 28
+ 0.115902 5 3 ack 40 ------- 2 5.0 1.0 6 48
- 0.115902 5 3 ack 40 ------- 2 5.0 1.0 6 48
- 0.115998 2 3 cbr 210 ------- 1 0.0 4.0 27 41
+ 0.11625 0 2 cbr 210 ------- 1 0.0 4.0 31 49
- 0.11625 0 2 cbr 210 ------- 1 0.0 4.0 31 49
r 0.116254 3 4 cbr 210 ------- 1 0.0 4.0 20 30
r 0.117278 2 3 cbr 210 ------- 1 0.0 4.0 22 32
+ 0.117278 3 4 cbr 210 ------- 1 0.0 4.0 22 32
- 0.117278 3 4 cbr 210 ------- 1 0.0 4.0 22 32
- 0.117678 2 3 tcp 1040 ------- 2 1.0 5.0 7 39
r 0.117934 3 4 cbr 210 ------- 1 0.0 4.0 21 31
r 0.117966 3 2 ack 40 ------- 2 5.0 1.0 5 43
+ 0.117966 2 1 ack 40 ------- 2 5.0 1.0 5 43
- 0.117966 2 1 ack 40 ------- 2 5.0 1.0 5 43
r 0.117966 5 3 ack 40 ------- 2 5.0 1.0 6 48
+ 0.117966 3 2 ack 40 ------- 2 5.0 1.0 6 48
- 0.117966 3 2 ack 40 ------- 2 5.0 1.0 6 48
r 0.118418 0 2 cbr 210 ------- 1 0.0 4.0 31 49
+ 0.118418 2 3 cbr 210 ------- 1 0.0 4.0 31 49
r 0.118958 2 3 cbr 210 ------- 1 0.0 4.0 23 33
+ 0.118958 3 4 cbr 210 ------- 1 0.0 4.0 23 33
- 0.118958 3 4 cbr 210 ------- 1 0.0 4.0 23 33
r 0.119614 3 4 cbr 210 ------- 1 0.0 4.0 22 32
+ 0.12 0 2 cbr 210 ------- 1 0.0 4.0 32 50
- 0.12 0 2 cbr 210 ------- 1 0.0 4.0 32 50
r 0.12003 2 1 ack 40 ------- 2 5.0 1.0 5 43
+ 0.12003 1 2 tcp 1040 ------- 2 1.0 5.0 11 51
- 0.12003 1 2 tcp 1040 ------- 2 1.0 5.0 11 51
+ 0.12003 1 2 tcp 1040 ------- 2 1.0 5.0 12 52
r 0.120638 2 3 cbr 210 ------- 1 0.0 4.0 24 35
+ 0.120638 3 4 cbr 210 ------- 1 0.0 4.0 24 35
- 0.120638 3 4 cbr 210 ------- 1 0.0 4.0 24 35
r 0.121294 3 4 cbr 210 ------- 1 0.0 4.0 23 33
- 0.121694 1 2 tcp 1040 ------- 2 1.0 5.0 12 52
r 0.122168 0 2 cbr 210 ------- 1 0.0 4.0 32 50
+ 0.122168 2 3 cbr 210 ------- 1 0.0 4.0 32 50
r 0.122318 2 3 cbr 210 ------- 1 0.0 4.0 25 36
+ 0.122318 3 4 cbr 210 ------- 1 0.0 4.0 25 36
- 0.122318 3 4 cbr 210 ------- 1 0.0 4.0 25 36
r 0.122974 3 4 cbr 210 ------- 1 0.0 4.0 24 35
r 0.123694 1 2 tcp 1040 ------- 2 1.0 5.0 11 51
+ 0.123694 2 3 tcp 1040 ------- 2 1.0 5.0 11 51
+ 0.12375 0 2 cbr 210 ------- 1 0.0 4.0 33 53
- 0.12375 0 2 cbr 210 ------- 1 0.0 4.0 33 53
r 0.123998 2 3 cbr 210 ------- 1 0.0 4.0 26 38
+ 0.123998 3 4 cbr 210 ------- 1 0.0 4.0 26 38
- 0.123998 3 4 cbr 210 ------- 1 0.0 4.0 26 38
r 0.124654 3 4 cbr 210 ------- 1 0.0 4.0 25 36
r 0.125358 1 2 tcp 1040 ------- 2 1.0 5.0 12 52
+ 0.125358 2 3 tcp 1040 ------- 2 1.0 5.0 12 52
r 0.125678 2 3 cbr 210 ------- 1 0.0 4.0 27 41
+ 0.125678 3 4 cbr 210 ------- 1 0.0 4.0 27 41
- 0.125678 3 4 cbr 210 ------- 1 0.0 4.0 27 41
r 0.125918 0 2 cbr 210 ------- 1 0.0 4.0 33 53
+ 0.125918 2 3 cbr 210 ------- 1 0.0 4.0 33 53
- 0.125998 2 3 tcp 1040 ------- 2 1.0 5.0 8 40
r 0.126286 3 2 ack 40 ------- 2 5.0 1.0 6 48
+ 0.126286 2 1 ack 40 ------- 2 5.0 1.0 6 48
- 0.126286 2 1 ack 40 ------- 2 5.0 1.0 6 48
r 0.126334 3 4 cbr 210 ------- 1 0.0 4.0 26 38
+ 0.1275 0 2 cbr 210 ------- 1 0.0 4.0 34 54
- 0.1275 0 2 cbr 210 ------- 1 0.0 4.0 34 54
r 0.128014 3 4 cbr 210 ------- 1 0.0 4.0 27 41
r 0.12835 2 1 ack 40 ------- 2 5.0 1.0 6 48
+ 0.12835 1 2 tcp 1040 ------- 2 1.0 5.0 13 55
- 0.12835 1 2 tcp 1040 ------- 2 1.0 5.0 13 55
+ 0.12835 1 2 tcp 1040 ------- 2 1.0 5.0 14 56
r 0.129668 0 2 cbr 210 ------- 1 0.0 4.0 34 54
+ 0.129668 2 3 cbr 210 ------- 1 0.0 4.0 34 54
- 0.130014 1 2 tcp 1040 ------- 2 1.0 5.0 14 56
+ 0.13125 0 2 cbr 210 ------- 1 0.0 4.0 35 57
- 0.13125 0 2 cbr 210 ------- 1 0.0 4.0 35 57
r 0.132014 1 2 tcp 1040 ------- 2 1.0 5.0 13 55
+ 0.132014 2 3 tcp 1040 ------- 2 1.0 5.0 13 55
r 0.133418 0 2 cbr 210 ------- 1 0.0 4.0 35 57
+ 0.133418 2 3 cbr 210 ------- 1 0.0 4.0 35 57
r 0.133678 1 2 tcp 1040 ------- 2 1.0 5.0 14 56
+ 0.133678 2 3 tcp 1040 ------- 2 1.0 5.0 14 56
r 0.133998 2 3 tcp 1040 ------- 2 1.0 5.0 7 39
+ 0.133998 3 5 tcp 1040 ------- 2 1.0 5.0 7 39
- 0.133998 3 5 tcp 1040 ------- 2 1.0 5.0 7 39
- 0.134318 2 3 cbr 210 ------- 1 0.0 4.0 28 42
+ 0.135 0 2 cbr 210 ------- 1 0.0 4.0 36 58
- 0.135 0 2 cbr 210 ------- 1 0.0 4.0 36 58
- 0.135998 2 3 cbr 210 ------- 1 0.0 4.0 29 46
r 0.137168 0 2 cbr 210 ------- 1 0.0 4.0 36 58
+ 0.137168 2 3 cbr 210 ------- 1 0.0 4.0 36 58
r 0.137662 3 5 tcp 1040 ------- 2 1.0 5.0 7 39
+ 0.137662 5 3 ack 40 ------- 2 5.0 1.0 7 59
- 0.137662 5 3 ack 40 ------- 2 5.0 1.0 7 59
- 0.137678 2 3 tcp 1040 ------- 2 1.0 5.0 9 44
+ 0.13875 0 2 cbr 210 ------- 1 0.0 4.0 37 60
- 0.13875 0 2 cbr 210 ------- 1 0.0 4.0 37 60
r 0.139726 5 3 ack 40 ------- 2 5.0 1.0 7 59
+ 0.139726 3 2 ack 40 ------- 2 5.0 1.0 7 59
- 0.139726 3 2 ack 40 ------- 2 5.0 1.0 7 59
r 0.140918 0 2 cbr 210 ------- 1 0.0 4.0 37 60
+ 0.140918 2 3 cbr 210 ------- 1 0.0 4.0 37 60
r 0.142318 2 3 tcp 1040 ------- 2 1.0 5.0 8 40
+ 0.142318 3 5 tcp 1040 ------- 2 1.0 5.0 8 40
- 0.142318 3 5 tcp 1040 ------- 2 1.0 5.0 8 40
+ 0.1425 0 2 cbr 210 ------- 1 0.0 4.0 38 61
- 0.1425 0 2 cbr 210 ------- 1 0.0 4.0 38 61
r 0.143998 2 3 cbr 210 ------- 1 0.0 4.0 28 42
+ 0.143998 3 4 cbr 210 ------- 1 0.0 4.0 28 42
- 0.143998 3 4 cbr 210 ------- 1 0.0 4.0 28 42
r 0.144668 0 2 cbr 210 ------- 1 0.0 4.0 38 61
+ 0.144668 2 3 cbr 210 ------- 1 0.0 4.0 38 61
r 0.145678 2 3 cbr 210 ------- 1 0.0 4.0 29 46
+ 0.145678 3 4 cbr 210 ------- 1 0.0 4.0 29 46
- 0.145678 3 4 cbr 210 ------- 1 0.0 4.0 29 46
r 0.145982 3 5 tcp 1040 ------- 2 1.0 5.0 8 40
+ 0.145982 5 3 ack 40 ------- 2 5.0 1.0 8 62
- 0.145982 5 3 ack 40 ------- 2 5.0 1.0 8 62
- 0.145998 2 3 tcp 1040 ------- 2 1.0 5.0 10 45
+ 0.14625 0 2 cbr 210 ------- 1 0.0 4.0 39 63
- 0.14625 0 2 cbr 210 ------- 1 0.0 4.0 39 63
r 0.146334 3 4 cbr 210 ------- 1 0.0 4.0 28 42
r 0.148014 3 4 cbr 210 ------- 1 0.0 4.0 29 46
r 0.148046 3 2 ack 40 ------- 2 5.0 1.0 7 59
+ 0.148046 2 1 ack 40 ------- 2 5.0 1.0 7 59
- 0.148046 2 1 ack 40 ------- 2 5.0 1.0 7 59
r 0.148046 5 3 ack 40 ------- 2 5.0 1.0 8 62
+ 0.148046 3 2 ack 40 ------- 2 5.0 1.0 8 62
- 0.148046 3 2 ack 40 ------- 2 5.0 1.0 8 62
r 0.148418 0 2 cbr 210 ------- 1 0.0 4.0 39 63
+ 0.148418 2 3 cbr 210 ------- 1 0.0 4.0 39 63
+ 0.15 0 2 cbr 210 ------- 1 0.0 4.0 40 64
- 0.15 0 2 cbr 210 ------- 1 0.0 4.0 40 64
r 0.15011 2 1 ack 40 ------- 2 5.0 1.0 7 59
+ 0.15011 1 2 tcp 1040 ------- 2 1.0 5.0 15 65
- 0.15011 1 2 tcp 1040 ------- 2 1.0 5.0 15 65
+ 0.15011 1 2 tcp 1040 ------- 2 1.0 5.0 16 66
- 0.151774 1 2 tcp 1040 ------- 2 1.0 5.0 16 66
r 0.152168 0 2 cbr 210 ------- 1 0.0 4.0 40 64
+ 0.152168 2 3 cbr 210 ------- 1 0.0 4.0 40 64
+ 0.15375 0 2 cbr 210 ------- 1 0.0 4.0 41 67
- 0.15375 0 2 cbr 210 ------- 1 0.0 4.0 41 67
r 0.153774 1 2 tcp 1040 ------- 2 1.0 5.0 15 65
+ 0.153774 2 3 tcp 1040 ------- 2 1.0 5.0 15 65
r 0.153998 2 3 tcp 1040 ------- 2 1.0 5.0 9 44
+ 0.153998 3 5 tcp 1040 ------- 2 1.0 5.0 9 44
- 0.153998 3 5 tcp 1040 ------- 2 1.0 5.0 9 44
- 0.154318 2 3 cbr 210 ------- 1 0.0 4.0 30 47
r 0.155438 1 2 tcp 1040 ------- 2 1.0 5.0 16 66
+ 0.155438 2 3 tcp 1040 ------- 2 1.0 5.0 16 66
r 0.155918 0 2 cbr 210 ------- 1 0.0 4.0 41 67
+ 0.155918 2 3 cbr 210 ------- 1 0.0 4.0 41 67
- 0.155998 2 3 cbr 210 ------- 1 0.0 4.0 31 49
r 0.156366 3 2 ack 40 ------- 2 5.0 1.0 8 62
+ 0.156366 2 1 ack 40 ------- 2 5.0 1.0 8 62
- 0.156366 2 1 ack 40 ------- 2 5.0 1.0 8 62
+ 0.1575 0 2 cbr 210 ------- 1 0.0 4.0 42 68
- 0.1575 0 2 cbr 210 ------- 1 0.0 4.0 42 68
r 0.157662 3 5 tcp 1040 ------- 2 1.0 5.0 9 44
+ 0.157662 5 3 ack 40 ------- 2 5.0 1.0 9 69
- 0.157662 5 3 ack 40 ------- 2 5.0 1.0 9 69
- 0.157678 2 3 cbr 210 ------- 1 0.0 4.0 32 50
r 0.15843 2 1 ack 40 ------- 2 5.0 1.0 8 62
+ 0.15843 1 2 tcp 1040 ------- 2 1.0 5.0 17 70
- 0.15843 1 2 tcp 1040 ------- 2 1.0 5.0 17 70
+ 0.15843 1 2 tcp 1040 ------- 2 1.0 5.0 18 71
- 0.159358 2 3 tcp 1040 ------- 2 1.0 5.0 11 51
r 0.159668 0 2 cbr 210 ------- 1 0.0 4.0 42 68
+ 0.159668 2 3 cbr 210 ------- 1 0.0 4.0 42 68
r 0.159726 5 3 ack 40 ------- 2 5.0 1.0 9 69
+ 0.159726 3 2 ack 40 ------- 2 5.0 1.0 9 69
- 0.159726 3 2 ack 40 ------- 2 5.0 1.0 9 69
- 0.160094 1 2 tcp 1040 ------- 2 1.0 5.0 18 71
+ 0.16125 0 2 cbr 210 ------- 1 0.0 4.0 43 72
- 0.16125 0 2 cbr 210 ------- 1 0.0 4.0 43 72
r 0.162094 1 2 tcp 1040 ------- 2 1.0 5.0 17 70
+ 0.162094 2 3 tcp 1040 ------- 2 1.0 5.0 17 70
r 0.162318 2 3 tcp 1040 ------- 2 1.0 5.0 10 45
+ 0.162318 3 5 tcp 1040 ------- 2 1.0 5.0 10 45
- 0.162318 3 5 tcp 1040 ------- 2 1.0 5.0 10 45
r 0.163418 0 2 cbr 210 ------- 1 0.0 4.0 43 72
+ 0.163418 2 3 cbr 210 ------- 1 0.0 4.0 43 72
r 0.163758 1 2 tcp 1040 ------- 2 1.0 5.0 18 71
+ 0.163758 2 3 tcp 1040 ------- 2 1.0 5.0 18 71
r 0.163998 2 3 cbr 210 ------- 1 0.0 4.0 30 47
+ 0.163998 3 4 cbr 210 ------- 1 0.0 4.0 30 47
- 0.163998 3 4 cbr 210 ------- 1 0.0 4.0 30 47
+ 0.165 0 2 cbr 210 ------- 1 0.0 4.0 44 73
- 0.165 0 2 cbr 210 ------- 1 0.0 4.0 44 73
r 0.165678 2 3 cbr 210 ------- 1 0.0 4.0 31 49
+ 0.165678 3 4 cbr 210 ------- 1 0.0 4.0 31 49
- 0.165678 3 4 cbr 210 ------- 1 0.0 4.0 31 49
r 0.165982 3 5 tcp 1040 ------- 2 1.0 5.0 10 45
+ 0.165982 5 3 ack 40 ------- 2 5.0 1.0 10 74
- 0.165982 5 3 ack 40 ------- 2 5.0 1.0 10 74
r 0.166334 3 4 cbr 210 ------- 1 0.0 4.0 30 47
r 0.167168 0 2 cbr 210 ------- 1 0.0 4.0 44 73
+ 0.167168 2 3 cbr 210 ------- 1 0.0 4.0 44 73
r 0.167358 2 3 cbr 210 ------- 1 0.0 4.0 32 50
+ 0.167358 3 4 cbr 210 ------- 1 0.0 4.0 32 50
- 0.167358 3 4 cbr 210 ------- 1 0.0 4.0 32 50
- 0.167678 2 3 tcp 1040 ------- 2 1.0 5.0 12 52
r 0.168014 3 4 cbr 210 ------- 1 0.0 4.0 31 49
r 0.168046 3 2 ack 40 ------- 2 5.0 1.0 9 69
+ 0.168046 2 1 ack 40 ------- 2 5.0 1.0 9 69
- 0.168046 2 1 ack 40 ------- 2 5.0 1.0 9 69
r 0.168046 5 3 ack 40 ------- 2 5.0 1.0 10 74
+ 0.168046 3 2 ack 40 ------- 2 5.0 1.0 10 74
- 0.168046 3 2 ack 40 ------- 2 5.0 1.0 10 74
+ 0.16875 0 2 cbr 210 ------- 1 0.0 4.0 45 75
- 0.16875 0 2 cbr 210 ------- 1 0.0 4.0 45 75
r 0.169694 3 4 cbr 210 ------- 1 0.0 4.0 32 50
r 0.17011 2 1 ack 40 ------- 2 5.0 1.0 9 69
+ 0.17011 1 2 tcp 1040 ------- 2 1.0 5.0 19 76
- 0.17011 1 2 tcp 1040 ------- 2 1.0 5.0 19 76
+ 0.17011 1 2 tcp 1040 ------- 2 1.0 5.0 20 77
r 0.170918 0 2 cbr 210 ------- 1 0.0 4.0 45 75
+ 0.170918 2 3 cbr 210 ------- 1 0.0 4.0 45 75
- 0.171774 1 2 tcp 1040 ------- 2 1.0 5.0 20 77
+ 0.1725 0 2 cbr 210 ------- 1 0.0 4.0 46 78
- 0.1725 0 2 cbr 210 ------- 1 0.0 4.0 46 78
r 0.173774 1 2 tcp 1040 ------- 2 1.0 5.0 19 76
+ 0.173774 2 3 tcp 1040 ------- 2 1.0 5.0 19 76
r 0.174668 0 2 cbr 210 ------- 1 0.0 4.0 46 78
+ 0.174668 2 3 cbr 210 ------- 1 0.0 4.0 46 78
r 0.175438 1 2 tcp 1040 ------- 2 1.0 5.0 20 77
+ 0.175438 2 3 tcp 1040 ------- 2 1.0 5.0 20 77
r 0.175678 2 3 tcp 1040 ------- 2 1.0 5.0 11 51
+ 0.175678 3 5 tcp 1040 ------- 2 1.0 5.0 11 51
- 0.175678 3 5 tcp 1040 ------- 2 1.0 5.0 11 51
- 0.175998 2 3 cbr 210 ------- 1 0.0 4.0 33 53
+ 0.17625 0 2 cbr 210 ------- 1 0.0 4.0 47 79
- 0.17625 0 2 cbr 210 ------- 1 0.0 4.0 47 79
r 0.176366 3 2 ack 40 ------- 2 5.0 1.0 10 74
+ 0.176366 2 1 ack 40 ------- 2 5.0 1.0 10 74
- 0.176366 2 1 ack 40 ------- 2 5.0 1.0 10 74
- 0.177678 2 3 cbr 210 ------- 1 0.0 4.0 34 54
r 0.178418 0 2 cbr 210 ------- 1 0.0 4.0 47 79
+ 0.178418 2 3 cbr 210 ------- 1 0.0 4.0 47 79
r 0.17843 2 1 ack 40 ------- 2 5.0 1.0 10 74
+ 0.17843 1 2 tcp 1040 ------- 2 1.0 5.0 21 80
- 0.17843 1 2 tcp 1040 ------- 2 1.0 5.0 21 80
+ 0.17843 1 2 tcp 1040 ------- 2 1.0 5.0 22 81
r 0.179342 3 5 tcp 1040 ------- 2 1.0 5.0 11 51
+ 0.179342 5 3 ack 40 ------- 2 5.0 1.0 11 82
- 0.179342 5 3 ack 40 ------- 2 5.0 1.0 11 82
- 0.179358 2 3 tcp 1040 ------- 2 1.0 5.0 13 55
+ 0.18 0 2 cbr 210 ------- 1 0.0 4.0 48 83
- 0.18 0 2 cbr 210 ------- 1 0.0 4.0 48 83
- 0.180094 1 2 tcp 1040 ------- 2 1.0 5.0 22 81
r 0.181406 5 3 ack 40 ------- 2 5.0 1.0 11 82
+ 0.181406 3 2 ack 40 ------- 2 5.0 1.0 11 82
- 0.181406 3 2 ack 40 ------- 2 5.0 1.0 11 82
r 0.182094 1 2 tcp 1040 ------- 2 1.0 5.0 21 80
+ 0.182094 2 3 tcp 1040 ------- 2 1.0 5.0 21 80
r 0.182168 0 2 cbr 210 ------- 1 0.0 4.0 48 83
+ 0.182168 2 3 cbr 210 ------- 1 0.0 4.0 48 83
+ 0.18375 0 2 cbr 210 ------- 1 0.0 4.0 49 84
- 0.18375 0 2 cbr 210 ------- 1 0.0 4.0 49 84
r 0.183758 1 2 tcp 1040 ------- 2 1.0 5.0 22 81
+ 0.183758 2 3 tcp 1040 ------- 2 1.0 5.0 22 81
r 0.183998 2 3 tcp 1040 ------- 2 1.0 5.0 12 52
+ 0.183998 3 5 tcp 1040 ------- 2 1.0 5.0 12 52
- 0.183998 3 5 tcp 1040 ------- 2 1.0 5.0 12 52
r 0.185678 2 3 cbr 210 ------- 1 0.0 4.0 33 53
+ 0.185678 3 4 cbr 210 ------- 1 0.0 4.0 33 53
- 0.185678 3 4 cbr 210 ------- 1 0.0 4.0 33 53
r 0.185918 0 2 cbr 210 ------- 1 0.0 4.0 49 84
+ 0.185918 2 3 cbr 210 ------- 1 0.0 4.0 49 84
r 0.187358 2 3 cbr 210 ------- 1 0.0 4.0 34 54
+ 0.187358 3 4 cbr 210 ------- 1 0.0 4.0 34 54
- 0.187358 3 4 cbr 210 ------- 1 0.0 4.0 34 54
+ 0.1875 0 2 cbr 210 ------- 1 0.0 4.0 50 85
- 0.1875 0 2 cbr 210 ------- 1 0.0 4.0 50 85
r 0.187662 3 5 tcp 1040 ------- 2 1.0 5.0 12 52
+ 0.187662 5 3 ack 40 ------- 2 5.0 1.0 12 86
- 0.187662 5 3 ack 40 ------- 2 5.0 1.0 12 86
- 0.187678 2 3 cbr 210 ------- 1 0.0 4.0 35 57
r 0.188014 3 4 cbr 210 ------- 1 0.0 4.0 33 53
- 0.189358 2 3 tcp 1040 ------- 2 1.0 5.0 14 56
r 0.189668 0 2 cbr 210 ------- 1 0.0 4.0 50 85
+ 0.189668 2 3 cbr 210 ------- 1 0.0 4.0 50 85
r 0.189694 3 4 cbr 210 ------- 1 0.0 4.0 34 54
r 0.189726 3 2 ack 40 ------- 2 5.0 1.0 11 82
+ 0.189726 2 1 ack 40 ------- 2 5.0 1.0 11 82
- 0.189726 2 1 ack 40 ------- 2 5.0 1.0 11 82
r 0.189726 5 3 ack 40 ------- 2 5.0 1.0 12 86
+ 0.189726 3 2 ack 40 ------- 2 5.0 1.0 12 86