V -t * -v 1.0a5 -a 0
A -t * -n 1 -p 0 -o 0x7fffffff -c 30 -a 1
A -t * -h 1 -m 1073741823 -s 0
c -t * -i 4 -n green
c -t * -i 5 -n orange
c -t * -i 1 -n blue
c -t * -i 2 -n red
c -t * -i 3 -n brown
n -t * -a 4 -s 4 -S UP -v circle -c green -i green
n -t * -a 0 -s 0 -S UP -v circle -c blue -i blue
n -t * -a 5 -s 5 -S UP -v circle -c purple -i purple
n -t * -a 1 -s 1 -S UP -v circle -c red -i red
n -t * -a 2 -s 2 -S UP -v circle -c black -i black
n -t * -a 3 -s 3 -S UP -v circle -c brown -i brown
l -t * -s 0 -d 2 -S UP -r 10000000 -D 0.002 -c black
l -t * -s 1 -d 2 -S UP -r 5000000 -D 0.002 -c black
l -t * -s 2 -d 3 -S UP -r 1000000 -D 0.0080000000000000002 -c black
l -t * -s 3 -d 4 -S UP -r 5000000 -D 0.002 -c black
l -t * -s 3 -d 5 -S UP -r 5000000 -D 0.002 -c black
+ -t 0 -s 0 -d 2 -p cbr -e 210 -c 1 -i 0 -a 1 -x {0.0 4.0 0 ------- null}
- -t 0 -s 0 -d 2 -p cbr -e 210 -c 1 -i 0 -a 1 -x {0.0 4.0 0 ------- null}
h -t 0 -s 0 -d 2 -p cbr -e 210 -c 1 -i 0 -a 1 -x {0.0 4.0 -1 ------- null}
+ -t 0 -s 1 -d 2 -p tcp -e 40 -c 2 -i 1 -a 2 -x {1.0 5.0 0 ------- null}
- -t 0 -s 1 -d 2 -p tcp -e 40 -c 2 -i 1 -a 2 -x {1.0 5.0 0 ------- null}
h -t 0 -s 1 -d 2 -p tcp -e 40 -c 2 -i 1 -a 2 -x {1.0 5.0 -1 ------- null}
r -t 0.002064 -s 1 -d 2 -p tcp -e 40 -c 2 -i 1 -a 2 -x {1.0 5.0 0 ------- null}
+ -t 0.002064 -s 2 -d 3 -p tcp -e 40 -c 2 -i 1 -a 2 -x {1.0 5.0 0 ------- null}
- -t 0.002064 -s 2 -d 3 -p tcp -e 40 -c 2 -i 1 -a 2 -x {1.0 5.0 0 ------- null}
h -t 0.002064 -s 2 -d 3 -p tcp -e 40 -c 2 -i 1 -a 2 -x {1.0 5.0 -1 ------- null}
r -t 0.002168 -s 0 -d 2 -p cbr -e 210 -c 1 -i 0 -a 1 -x {0.0 4.0 0 ------- null}
+ -t 0.002168 -s 2 -d 3 -p cbr -e 210 -c 1 -i 0 -a 1 -x {0.0 4.0 0 ------- null}
- -t 0.002384 -s 2 -d 3 -p cbr -e 210 -c 1 -i 0 -a 1 -x {0.0 4.0 0 ------- null}
h -t 0.002384 -s 2 -d 3 -p cbr -e 210 -c 1 -i 0 -a 1 -x {0.0 4.0 -1 ------- null}
+ -t 0.00375 -s 0 -d 2 -p cbr -e 210 -c 1 -i 2 -a 1 -x {0.0 4.0 1 ------- null}
- -t 0.00375 -s 0 -d 2 -p cbr -e 210 -c 1 -i 2 -a 1 -x {0.0 4.0 1 ------- null}
h -t 0.00375 -s 0 -d 2 -p cbr -e 210 -c 1 -i 2 -a 1 -x {0.0 4.0 -1 ------- null}
r -t 0.005918 -s 0 -d 2 -p cbr -e 210 -c 1 -i 2 -a 1 -x {0.0 4.0 1 ------- null}
+ -t 0.005918 -s 2 -d 3 -p cbr -e 210 -c 1 -i 2 -a 1 -x {0.0 4.0 1 ------- null}
- -t 0.005918 -s 2 -d 3 -p cbr -e 210 -c 1 -i 2 -a 1 -x {0.0 4.0 1 ------- null}
h -t 0.005918 -s 2 -d 3 -p cbr -e 210 -c 1 -i 2 -a 1 -x {0.0 4.0 -1 ------- null}
+ -t 0.0075 -s 0 -d 2 -p cbr -e 210 -c 1 -i 3 -a 1 -x {0.0 4.0 2 ------- null}
- -t 0.0075 -s 0 -d 2 -p cbr -e 210 -c 1 -i 3 -a 1 -x {0.0 4.0 2 ------- null}
h -t 0.0075 -s 0 -d 2 -p cbr -e 210 -c 1 -i 3 -a 1 -x {0.0 4.0 -1 ------- null}
r -t 0.009668 -s 0 -d 2 -p cbr -e 210 -c 1 -i 3 -a 1 -x {0.0 4.0 2 ------- null}
+ -t 0.009668 -s 2 -d 3 -p cbr -e 210 -c 1 -i 3 -a 1 -x {0.0 4.0 2 ------- null}
- -t 0.009668 -s 2 -d 3 -p cbr -e 210 -c 1 -i 3 -a 1 -x {0.0 4.0 2 ------- null}
h -t 0.009668 -s 2 -d 3 -p cbr -e 210 -c 1 -i 3 -a 1 -x {0.0 4.0 -1 ------- null}
r -t 0.010384 -s 2 -d 3 -p tcp -e 40 -c 2 -i 1 -a 2 -x {1.0 5.0 0 ------- null}
+ -t 0.010384 -s 3 -d 5 -p tcp -e 40 -c 2 -i 1 -a 2 -x {1.0 5.0 0 ------- null}
- -t 0.010384 -s 3 -d 5 -p tcp -e 40 -c 2 -i 1 -a 2 -x {1.0 5.0 0 ------- null}
h -t 0.010384 -s 3 -d 5 -p tcp -e 40 -c 2 -i 1 -a 2 -x {1.0 5.0 -1 ------- null}
+ -t 0.01125 -s 0 -d 2 -p cbr -e 210 -c 1 -i 4 -a 1 -x {0.0 4.0 3 ------- null}
- -t 0.01125 -s 0 -d 2 -p cbr -e 210 -c 1 -i 4 -a 1 -x {0.0 4.0 3 ------- null}
h -t 0.01125 -s 0 -d 2 -p cbr -e 210 -c 1 -i 4 -a 1 -x {0.0 4.0 -1 ------- null}
r -t 0.012064 -s 2 -d 3 -p cbr -e 210 -c 1 -i 0 -a 1 -x {0.0 4.0 0 ------- null}
+ -t 0.012064 -s 3 -d 4 -p cbr -e 210 -c 1 -i 0 -a 1 -x {0.0 4.0 0 ------- null}
- -t 0.012064 -s 3 -d 4 -p cbr -e 210 -c 1 -i 0 -a 1 -x {0.0 4.0 0 ------- null}
h -t 0.012064 -s 3 -d 4 -p cbr -e 210 -c 1 -i 0 -a 1 -x {0.0 4.0 -1 ------- null}
r -t 0.012448 -s 3 -d 5 -p tcp -e 40 -c 2 -i 1 -a 2 -x {1.0 5.0 0 ------- null}
+ -t 0.012448 -s 5 -d 3 -p ack -e 40 -c 2 -i 5 -a 2 -x {5.0 1.0 0 ------- null}
- -t 0.012448 -s 5 -d 3 -p ack -e 40 -c 2 -i 5 -a 2 -x {5.0 1.0 0 ------- null}
h -t 0.012448 -s 5 -d 3 -p ack -e 40 -c 2 -i 5 -a 2 -x {5.0 1.0 -1 ------- null}
r -t 0.013418 -s 0 -d 2 -p cbr -e 210 -c 1 -i 4 -a 1 -x {0.0 4.0 3 ------- null}
+ -t 0.013418 -s 2 -d 3 -p cbr -e 210 -c 1 -i 4 -a 1 -x {0.0 4.0 3 ------- null}
- -t 0.013418 -s 2 -d 3 -p cbr -e 210 -c 1 -i 4 -a 1 -x {0.0 4.0 3 ------- null}
h -t 0.013418 -s 2 -d 3 -p cbr -e 210 -c 1 -i 4 -a 1 -x {0.0 4.0 -1 ------- null}
r -t 0.0144 -s 3 -d 4 -p cbr -e 210 -c 1 -i 0 -a 1 -x {0.0 4.0 0 ------- null}
r -t 0.014512 -s 5 -d 3 -p ack -e 40 -c 2 -i 5 -a 2 -x {5.0 1.0 0 ------- null}
+ -t 0.014512 -s 3 -d 2 -p ack -e 40 -c 2 -i 5 -a 2 -x {5.0 1.0 0 ------- null}
- -t 0.014512 -s 3 -d 2 -p ack -e 40 -c 2 -i 5 -a 2 -x {5.0 1.0 0 ------- null}
h -t 0.014512 -s 3 -d 2 -p ack -e 40 -c 2 -i 5 -a 2 -x {5.0 1.0 -1 ------- null}
+ -t 0.015 -s 0 -d 2 -p cbr -e 210 -c 1 -i 6 -a 1 -x {0.0 4.0 4 ------- null}
- -t 0.015 -s 0 -d 2 -p cbr -e 210 -c 1 -i 6 -a 1 -x {0.0 4.0 4 ------- null}
h -t 0.015 -s 0 -d 2 -p cbr -e 210 -c 1 -i 6 -a 1 -x {0.0 4.0 -1 ------- null}
r -t 0.015598 -s 2 -d 3 -p cbr -e 210 -c 1 -i 2 -a 1 -x {0.0 4.0 1 ------- null}
+ -t 0.015598 -s 3 -d 4 -p cbr -e 210 -c 1 -i 2 -a 1 -x {0.0 4.0 1 ------- null}
- -t 0.015598 -s 3 -d 4 -p cbr -e 210 -c 1 -i 2 -a 1 -x {0.0 4.0 1 ------- null}
h -t 0.015598 -s 3 -d 4 -p cbr -e 210 -c 1 -i 2 -a 1 -x {0.0 4.0 -1 ------- null}
r -t 0.017168 -s 0 -d 2 -p cbr -e 210 -c 1 -i 6 -a 1 -x {0.0 4.0 4 ------- null}
+ -t 0.017168 -s 2 -d 3 -p cbr -e 210 -c 1 -i 6 -a 1 -x {0.0 4.0 4 ------- null}
- -t 0.017168 -s 2 -d 3 -p cbr -e 210 -c 1 -i 6 -a 1 -x {0.0 4.0 4 ------- null}
h -t 0.017168 -s 2 -d 3 -p cbr -e 210 -c 1 -i 6 -a 1 -x {0.0 4.0 -1 ------- null}
r -t 0.017934 -s 3 -d 4 -p cbr -e 210 -c 1 -i 2 -a 1 -x {0.0 4.0 1 ------- null}
+ -t 0.01875 -s 0 -d 2 -p cbr -e 210 -c 1 -i 7 -a 1 -x {0.0 4.0 5 ------- null}
- -t 0.01875 -s 0 -d 2 -p cbr -e 210 -c 1 -i 7 -a 1 -x {0.0 4.0 5 ------- null}
h -t 0.01875 -s 0 -d 2 -p cbr -e 210 -c 1 -i 7 -a 1 -x {0.0 4.0 -1 ------- null}
r -t 0.019348 -s 2 -d 3 -p cbr -e 210 -c 1 -i 3 -a 1 -x {0.0 4.0 2 ------- null}
+ -t 0.019348 -s 3 -d 4 -p cbr -e 210 -c 1 -i 3 -a 1 -x {0.0 4.0 2 ------- null}
- -t 0.019348 -s 3 -d 4 -p cbr -e 210 -c 1 -i 3 -a 1 -x {0.0 4.0 2 ------- null}
h -t 0.019348 -s 3 -d 4 -p cbr -e 210 -c 1 -i 3 -a 1 -x {0.0 4.0 -1 ------- null}
r -t 0.020918 -s 0 -d 2 -p cbr -e 210 -c 1 -i 7 -a 1 -x {0.0 4.0 5 ------- null}
+ -t 0.020918 -s 2 -d 3 -p cbr -e 210 -c 1 -i 7 -a 1 -x {0.0 4.0 5 ------- null}
- -t 0.020918 -s 2 -d 3 -p cbr -e 210 -c 1 -i 7 -a 1 -x {0.0 4.0 5 ------- null}
h -t 0.020918 -s 2 -d 3 -p cbr -e 210 -c 1 -i 7 -a 1 -x {0.0 4.0 -1 ------- null}
r -t 0.021684 -s 3 -d 4 -p cbr -e 210 -c 1 -i 3 -a 1 -x {0.0 4.0 2 ------- null}
+ -t 0.0225 -s 0 -d 2 -p cbr -e 210 -c 1 -i 8 -a 1 -x {0.0 4.0 6 ------- null}
- -t 0.0225 -s 0 -d 2 -p cbr -e 210 -c 1 -i 8 -a 1 -x {0.0 4.0 6 ------- null}
h -t 0.0225 -s 0 -d 2 -p cbr -e 210 -c 1 -i 8 -a 1 -x {0.0 4.0 -1 ------- null}
r -t 0.022832 -s 3 -d 2 -p ack -e 40 -c 2 -i 5 -a 2 -x {5.0 1.0 0 ------- null}
+ -t 0.022832 -s 2 -d 1 -p ack -e 40 -c 2 -i 5 -a 2 -x {5.0 1.0 0 ------- null}
- -t 0.022832 -s 2 -d 1 -p ack -e 40 -c 2 -i 5 -a 2 -x {5.0 1.0 0 ------- null}
h -t 0.022832 -s 2 -d 1 -p ack -e 40 -c 2 -i 5 -a 2 -x {5.0 1.0 -1 ------- null}
r -t 0.023098 -s 2 -d 3 -p cbr -e 210 -c 1 -i 4 -a 1 -x {0.0 4.0 3 ------- null}
+ -t 0.023098 -s 3 -d 4 -p cbr -e 210 -c 1 -i 4 -a 1 -x {0.0 4.0 3 ------- null}
- -t 0.023098 -s 3 -d 4 -p cbr -e 210 -c 1 -i 4 -a 1 -x {0.0 4.0 3 ------- null}
h -t 0.023098 -s 3 -d 4 -p cbr -e 210 -c 1 -i 4 -a 1 -x {0.0 4.0 -1 ------- null}
r -t 0.024668 -s 0 -d 2 -p cbr -e 210 -c 1 -i 8 -a 1 -x {0.0 4.0 6 ------- null}
+ -t 0.024668 -s 2 -d 3 -p cbr -e 210 -c 1 -i 8 -a 1 -x {0.0 4.0 6 ------- null}
- -t 0.024668 -s 2 -d 3 -p cbr -e 210 -c 1 -i 8 -a 1 -x {0.0 4.0 6 ------- null}
h -t 0.024668 -s 2 -d 3 -p cbr -e 210 -c 1 -i 8 -a 1 -x {0.0 4.0 -1 ------- null}
r -t 0.024896 -s 2 -d 1 -p ack -e 40 -c 2 -i 5 -a 2 -x {5.0 1.0 0 ------- null}
+ -t 0.024896 -s 1 -d 2 -p tcp -e 1040 -c 2 -i 9 -a 2 -x {1.0 5.0 1 ------- null}
- -t 0.024896 -s 1 -d 2 -p tcp -e 1040 -c 2 -i 9 -a 2 -x {1.0 5.0 1 ------- null}
h -t 0.024896 -s 1 -d 2 -p tcp -e 1040 -c 2 -i 9 -a 2 -x {1.0 5.0 -1 ------- null}
+ -t 0.024896 -s 1 -d 2 -p tcp -e 1040 -c 2 -i 10 -a 2 -x {1.0 5.0 2 ------- null}
r -t 0.025434 -s 3 -d 4 -p cbr -e 210 -c 1 -i 4 -a 1 -x {0.0 4.0 3 ------- null}
+ -t 0.02625 -s 0 -d 2 -p cbr -e 210 -c 1 -i 11 -a 1 -x {0.0 4.0 7 ------- null}
- -t 0.02625 -s 0 -d 2 -p cbr -e 210 -c 1 -i 11 -a 1 -x {0.0 4.0 7 ------- null}
h -t 0.02625 -s 0 -d 2 -p cbr -e 210 -c 1 -i 11 -a 1 -x {0.0 4.0 -1 ------- null}
- -t 0.02656 -s 1 -d 2 -p tcp -e 1040 -c 2 -i 10 -a 2 -x {1.0 5.0 2 ------- null}
h -t 0.02656 -s 1 -d 2 -p tcp -e 1040 -c 2 -i 10 -a 2 -x {1.0 5.0 -1 ------- null}
r -t 0.026848 -s 2 -d 3 -p cbr -e 210 -c 1 -i 6 -a 1 -x {0.0 4.0 4 ------- null}
+ -t 0.026848 -s 3 -d 4 -p cbr -e 210 -c 1 -i 6 -a 1 -x {0.0 4.0 4 ------- null}
- -t 0.026848 -s 3 -d 4 -p cbr -e 210 -c 1 -i 6 -a 1 -x {0.0 4.0 4 ------- null}
h -t 0.026848 -s 3 -d 4 -p cbr -e 210 -c 1 -i 6 -a 1 -x {0.0 4.0 -1 ------- null}
r -t 0.028418 -s 0 -d 2 -p cbr -e 210 -c 1 -i 11 -a 1 -x {0.0 4.0 7 ------- null}
+ -t 0.028418 -s 2 -d 3 -p cbr -e 210 -c 1 -i 11 -a 1 -x {0.0 4.0 7 ------- null}
- -t 0.028418 -s 2 -d 3 -p cbr -e 210 -c 1 -i 11 -a 1 -x {0.0 4.0 7 ------- null}
h -t 0.028418 -s 2 -d 3 -p cbr -e 210 -c 1 -i 11 -a 1 -x {0.0 4.0 -1 ------- null}
r -t 0.02856 -s 1 -d 2 -p tcp -e 1040 -c 2 -i 9 -a 2 -x {1.0 5.0 1 ------- null}
+ -t 0.02856 -s 2 -d 3 -p tcp -e 1040 -c 2 -i 9 -a 2 -x {1.0 5.0 1 ------- null}
r -t 0.029184 -s 3 -d 4 -p cbr -e 210 -c 1 -i 6 -a 1 -x {0.0 4.0 4 ------- null}
+ -t 0.03 -s 0 -d 2 -p cbr -e 210 -c 1 -i 12 -a 1 -x {0.0 4.0 8 ------- null}
- -t 0.03 -s 0 -d 2 -p cbr -e 210 -c 1 -i 12 -a 1 -x {0.0 4.0 8 ------- null}
h -t 0.03 -s 0 -d 2 -p cbr -e 210 -c 1 -i 12 -a 1 -x {0.0 4.0 -1 ------- null}
- -t 0.030098 -s 2 -d 3 -p tcp -e 1040 -c 2 -i 9 -a 2 -x {1.0 5.0 1 ------- null}
h -t 0.030098 -s 2 -d 3 -p tcp -e 1040 -c 2 -i 9 -a 2 -x {1.0 5.0 -1 ------- null}
r -t 0.030224 -s 1 -d 2 -p tcp -e 1040 -c 2 -i 10 -a 2 -x {1.0 5.0 2 ------- null}
+ -t 0.030224 -s 2 -d 3 -p tcp -e 1040 -c 2 -i 10 -a 2 -x {1.0 5.0 2 ------- null}
r -t 0.030598 -s 2 -d 3 -p cbr -e 210 -c 1 -i 7 -a 1 -x {0.0 4.0 5 ------- null}
+ -t 0.030598 -s 3 -d 4 -p cbr -e 210 -c 1 -i 7 -a 1 -x {0.0 4.0 5 ------- null}
- -t 0.030598 -s 3 -d 4 -p cbr -e 210 -c 1 -i 7 -a 1 -x {0.0 4.0 5 ------- null}
h -t 0.030598 -s 3 -d 4 -p cbr -e 210 -c 1 -i 7 -a 1 -x {0.0 4.0 -1 ------- null}
r -t 0.032168 -s 0 -d 2 -p cbr -e 210 -c 1 -i 12 -a 1 -x {0.0 4.0 8 ------- null}
+ -t 0.032168 -s 2 -d 3 -p cbr -e 210 -c 1 -i 12 -a 1 -x {0.0 4.0 8 ------- null}
r -t 0.032934 -s 3 -d 4 -p cbr -e 210 -c 1 -i 7 -a 1 -x {0.0 4.0 5 ------- null}
+ -t 0.03375 -s 0 -d 2 -p cbr -e 210 -c 1 -i 13 -a 1 -x {0.0 4.0 9 ------- null}
- -t 0.03375 -s 0 -d 2 -p cbr -e 210 -c 1 -i 13 -a 1 -x {0.0 4.0 9 ------- null}
h -t 0.03375 -s 0 -d 2 -p cbr -e 210 -c 1 -i 13 -a 1 -x {0.0 4.0 -1 ------- null}
r -t 0.034348 -s 2 -d 3 -p cbr -e 210 -c 1 -i 8 -a 1 -x {0.0 4.0 6 ------- null}
+ -t 0.034348 -s 3 -d 4 -p cbr -e 210 -c 1 -i 8 -a 1 -x {0.0 4.0 6 ------- null}
- -t 0.034348 -s 3 -d 4 -p cbr -e 210 -c 1 -i 8 -a 1 -x {0.0 4.0 6 ------- null}
h -t 0.034348 -s 3 -d 4 -p cbr -e 210 -c 1 -i 8 -a 1 -x {0.0 4.0 -1 ------- null}
r -t 0.035918 -s 0 -d 2 -p cbr -e 210 -c 1 -i 13 -a 1 -x {0.0 4.0 9 ------- null}
+ -t 0.035918 -s 2 -d 3 -p cbr -e 210 -c 1 -i 13 -a 1 -x {0.0 4.0 9 ------- null}
r -t 0.036684 -s 3 -d 4 -p cbr -e 210 -c 1 -i 8 -a 1 -x {0.0 4.0 6 ------- null}
+ -t 0.0375 -s 0 -d 2 -p cbr -e 210 -c 1 -i 14 -a 1 -x {0.0 4.0 10 ------- null}
- -t 0.0375 -s 0 -d 2 -p cbr -e 210 -c 1 -i 14 -a 1 -x {0.0 4.0 10 ------- null}
h -t 0.0375 -s 0 -d 2 -p cbr -e 210 -c 1 -i 14 -a 1 -x {0.0 4.0 -1 ------- null}
r -t 0.038098 -s 2 -d 3 -p cbr -e 210 -c 1 -i 11 -a 1 -x {0.0 4.0 7 ------- null}
+ -t 0.038098 -s 3 -d 4 -p cbr -e 210 -c 1 -i 11 -a 1 -x {0.0 4.0 7 ------- null}
- -t 0.038098 -s 3 -d 4 -p cbr -e 210 -c 1 -i 11 -a 1 -x {0.0 4.0 7 ------- null}
h -t 0.038098 -s 3 -d 4 -p cbr -e 210 -c 1 -i 11 -a 1 -x {0.0 4.0 -1 ------- null}
- -t 0.038418 -s 2 -d 3 -p tcp -e 1040 -c 2 -i 10 -a 2 -x {1.0 5.0 2 ------- null}
h -t 0.038418 -s 2 -d 3 -p tcp -e 1040 -c 2 -i 10 -a 2 -x {1.0 5.0 -1 ------- null}
r -t 0.039668 -s 0 -d 2 -p cbr -e 210 -c 1 -i 14 -a 1 -x {0.0 4.0 10 ------- null}
+ -t 0.039668 -s 2 -d 3 -p cbr -e 210 -c 1 -i 14 -a 1 -x {0.0 4.0 10 ------- null}
r -t 0.040434 -s 3 -d 4 -p cbr -e 210 -c 1 -i 11 -a 1 -x {0.0 4.0 7 ------- null}
+ -t 0.04125 -s 0 -d 2 -p cbr -e 210 -c 1 -i 15 -a 1 -x {0.0 4.0 11 ------- null}
- -t 0.04125 -s 0 -d 2 -p cbr -e 210 -c 1 -i 15 -a 1 -x {0.0 4.0 11 ------- null}
h -t 0.04125 -s 0 -d 2 -p cbr -e 210 -c 1 -i 15 -a 1 -x {0.0 4.0 -1 ------- null}
r -t 0.043418 -s 0 -d 2 -p cbr -e 210 -c 1 -i 15 -a 1 -x {0.0 4.0 11 ------- null}
+ -t 0.043418 -s 2 -d 3 -p cbr -e 210 -c 1 -i 15 -a 1 -x {0.0 4.0 11 ------- null}
+ -t 0.045 -s 0 -d 2 -p cbr -e 210 -c 1 -i 16 -a 1 -x {0.0 4.0 12 ------- null}
- -t 0.045 -s 0 -d 2 -p cbr -e 210 -c 1 -i 16 -a 1 -x {0.0 4.0 12 ------- null}
h -t 0.045 -s 0 -d 2 -p cbr -e 210 -c 1 -i 16 -a 1 -x {0.0 4.0 -1 ------- null}
r -t 0.046418 -s 2 -d 3 -p tcp -e 1040 -c 2 -i 9 -a 2 -x {1.0 5.0 1 ------- null}
+ -t 0.046418 -s 3 -d 5 -p tcp -e 1040 -c 2 -i 9 -a 2 -x {1.0 5.0 1 ------- null}
- -t 0.046418 -s 3 -d 5 -p tcp -e 1040 -c 2 -i 9 -a 2 -x {1.0 5.0 1 ------- null}
h -t 0.046418 -s 3 -d 5 -p tcp -e 1040 -c 2 -i 9 -a 2 -x {1.0 5.0 -1 ------- null}
- -t 0.046738 -s 2 -d 3 -p cbr -e 210 -c 1 -i 12 -a 1 -x {0.0 4.0 8 ------- null}
h -t 0.046738 -s 2 -d 3 -p cbr -e 210 -c 1 -i 12 -a 1 -x {0.0 4.0 -1 ------- null}
r -t 0.047168 -s 0 -d 2 -p cbr -e 210 -c 1 -i 16 -a 1 -x {0.0 4.0 12 ------- null}
+ -t 0.047168 -s 2 -d 3 -p cbr -e 210 -c 1 -i 16 -a 1 -x {0.0 4.0 12 ------- null}
- -t 0.048418 -s 2 -d 3 -p cbr -e 210 -c 1 -i 13 -a 1 -x {0.0 4.0 9 ------- null}
h -t 0.048418 -s 2 -d 3 -p cbr -e 210 -c 1 -i 13 -a 1 -x {0.0 4.0 -1 ------- null}
+ -t 0.04875 -s 0 -d 2 -p cbr -e 210 -c 1 -i 17 -a 1 -x {0.0 4.0 13 ------- null}
- -t 0.04875 -s 0 -d 2 -p cbr -e 210 -c 1 -i 17 -a 1 -x {0.0 4.0 13 ------- null}
h -t 0.04875 -s 0 -d 2 -p cbr -e 210 -c 1 -i 17 -a 1 -x {0.0 4.0 -1 ------- null}
r -t 0.050082 -s 3 -d 5 -p tcp -e 1040 -c 2 -i 9 -a 2 -x {1.0 5.0 1 ------- null}
+ -t 0.050082 -s 5 -d 3 -p ack -e 40 -c 2 -i 18 -a 2 -x {5.0 1.0 1 ------- null}
- -t 0.050082 -s 5 -d 3 -p ack -e 40 -c 2 -i 18 -a 2 -x {5.0 1.0 1 ------- null}
h -t 0.050082 -s 5 -d 3 -p ack -e 40 -c 2 -i 18 -a 2 -x {5.0 1.0 -1 ------- null}
- -t 0.050098 -s 2 -d 3 -p cbr -e 210 -c 1 -i 14 -a 1 -x {0.0 4.0 10 ------- null}
h -t 0.050098 -s 2 -d 3 -p cbr -e 210 -c 1 -i 14 -a 1 -x {0.0 4.0 -1 ------- null}
r -t 0.050918 -s 0 -d 2 -p cbr -e 210 -c 1 -i 17 -a 1 -x {0.0 4.0 13 ------- null}
+ -t 0.050918 -s 2 -d 3 -p cbr -e 210 -c 1 -i 17 -a 1 -x {0.0 4.0 13 ------- null}
- -t 0.051778 -s 2 -d 3 -p cbr -e 210 -c 1 -i 15 -a 1 -x {0.0 4.0 11 ------- null}
h -t 0.051778 -s 2 -d 3 -p cbr -e 210 -c 1 -i 15 -a 1 -x {0.0 4.0 -1 ------- null}
r -t 0.052146 -s 5 -d 3 -p ack -e 40 -c 2 -i 18 -a 2 -x {5.0 1.0 1 ------- null}
+ -t 0.052146 -s 3 -d 2 -p ack -e 40 -c 2 -i 18 -a 2 -x {5.0 1.0 1 ------- null}
- -t 0.052146 -s 3 -d 2 -p ack -e 40 -c 2 -i 18 -a 2 -x {5.0 1.0 1 ------- null}
h -t 0.052146 -s 3 -d 2 -p ack -e 40 -c 2 -i 18 -a 2 -x {5.0 1.0 -1 ------- null}
+ -t 0.0525 -s 0 -d 2 -p cbr -e 210 -c 1 -i 19 -a 1 -x {0.0 4.0 14 ------- null}
- -t 0.0525 -s 0 -d 2 -p cbr -e 210 -c 1 -i 19 -a 1 -x {0.0 4.0 14 ------- null}
h -t 0.0525 -s 0 -d 2 -p cbr -e 210 -c 1 -i 19 -a 1 -x {0.0 4.0 -1 ------- null}
- -t 0.053458 -s 2 -d 3 -p cbr -e 210 -c 1 -i 16 -a 1 -x {0.0 4.0 12 ------- null}
h -t 0.053458 -s 2 -d 3 -p cbr -e 210 -c 1 -i 16 -a 1 -x {0.0 4.0 -1 ------- null}
r -t 0.054668 -s 0 -d 2 -p cbr -e 210 -c 1 -i 19 -a 1 -x {0.0 4.0 14 ------- null}
+ -t 0.054668 -s 2 -d 3 -p cbr -e 210 -c 1 -i 19 -a 1 -x {0.0 4.0 14 ------- null}
r -t 0.054738 -s 2 -d 3 -p tcp -e 1040 -c 2 -i 10 -a 2 -x {1.0 5.0 2 ------- null}
+ -t 0.054738 -s 3 -d 5 -p tcp -e 1040 -c 2 -i 10 -a 2 -x {1.0 5.0 2 ------- null}
- -t 0.054738 -s 3 -d 5 -p tcp -e 1040 -c 2 -i 10 -a 2 -x {1.0 5.0 2 ------- null}
h -t 0.054738 -s 3 -d 5 -p tcp -e 1040 -c 2 -i 10 -a 2 -x {1.0 5.0 -1 ------- null}
- -t 0.055138 -s 2 -d 3 -p cbr -e 210 -c 1 -i 17 -a 1 -x {0.0 4.0 13 ------- null}
h -t 0.055138 -s 2 -d 3 -p cbr -e 210 -c 1 -i 17 -a 1 -x {0.0 4.0 -1 ------- null}
+ -t 0.05625 -s 0 -d 2 -p cbr -e 210 -c 1 -i 20 -a 1 -x {0.0 4.0 15 ------- null}
- -t 0.05625 -s 0 -d 2 -p cbr -e 210 -c 1 -i 20 -a 1 -x {0.0 4.0 15 ------- null}
h -t 0.05625 -s 0 -d 2 -p cbr -e 210 -c 1 -i 20 -a 1 -x {0.0 4.0 -1 ------- null}
r -t 0.056418 -s 2 -d 3 -p cbr -e 210 -c 1 -i 12 -a 1 -x {0.0 4.0 8 ------- null}
+ -t 0.056418 -s 3 -d 4 -p cbr -e 210 -c 1 -i 12 -a 1 -x {0.0 4.0 8 ------- null}
- -t 0.056418 -s 3 -d 4 -p cbr -e 210 -c 1 -i 12 -a 1 -x {0.0 4.0 8 ------- null}
h -t 0.056418 -s 3 -d 4 -p cbr -e 210 -c 1 -i 12 -a 1 -x {0.0 4.0 -1 ------- null}
- -t 0.056818 -s 2 -d 3 -p cbr -e 210 -c 1 -i 19 -a 1 -x {0.0 4.0 14 ------- null}
h -t 0.056818 -s 2 -d 3 -p cbr -e 210 -c 1 -i 19 -a 1 -x {0.0 4.0 -1 ------- null}
r -t 0.058098 -s 2 -d 3 -p cbr -e 210 -c 1 -i 13 -a 1 -x {0.0 4.0 9 ------- null}
+ -t 0.058098 -s 3 -d 4 -p cbr -e 210 -c 1 -i 13 -a 1 -x {0.0 4.0 9 ------- null}
- -t 0.058098 -s 3 -d 4 -p cbr -e 210 -c 1 -i 13 -a 1 -x {0.0 4.0 9 ------- null}
h -t 0.058098 -s 3 -d 4 -p cbr -e 210 -c 1 -i 13 -a 1 -x {0.0 4.0 -1 ------- null}
r -t 0.058402 -s 3 -d 5 -p tcp -e 1040 -c 2 -i 10 -a 2 -x {1.0 5.0 2 ------- null}
+ -t 0.058402 -s 5 -d 3 -p ack -e 40 -c 2 -i 21 -a 2 -x {5.0 1.0 2 ------- null}
- -t 0.058402 -s 5 -d 3 -p ack -e 40 -c 2 -i 21 -a 2 -x {5.0 1.0 2 ------- null}
h -t 0.058402 -s 5 -d 3 -p ack -e 40 -c 2 -i 21 -a 2 -x {5.0 1.0 -1 ------- null}
r -t 0.058418 -s 0 -d 2 -p cbr -e 210 -c 1 -i 20 -a 1 -x {0.0 4.0 15 ------- null}
+ -t 0.058418 -s 2 -d 3 -p cbr -e 210 -c 1 -i 20 -a 1 -x {0.0 4.0 15 ------- null}
- -t 0.058498 -s 2 -d 3 -p cbr -e 210 -c 1 -i 20 -a 1 -x {0.0 4.0 15 ------- null}
h -t 0.058498 -s 2 -d 3 -p cbr -e 210 -c 1 -i 20 -a 1 -x {0.0 4.0 -1 ------- null}
r -t 0.058754 -s 3 -d 4 -p cbr -e 210 -c 1 -i 12 -a 1 -x {0.0 4.0 8 ------- null}
r -t 0.059778 -s 2 -d 3 -p cbr -e 210 -c 1 -i 14 -a 1 -x {0.0 4.0 10 ------- null}
+ -t 0.059778 -s 3 -d 4 -p cbr -e 210 -c 1 -i 14 -a 1 -x {0.0 4.0 10 ------- null}
- -t 0.059778 -s 3 -d 4 -p cbr -e 210 -c 1 -i 14 -a 1 -x {0.0 4.0 10 ------- null}
h -t 0.059778 -s 3 -d 4 -p cbr -e 210 -c 1 -i 14 -a 1 -x {0.0 4.0 -1 ------- null}
+ -t 0.06 -s 0 -d 2 -p cbr -e 210 -c 1 -i 22 -a 1 -x {0.0 4.0 16 ------- null}
- -t 0.06 -s 0 -d 2 -p cbr -e 210 -c 1 -i 22 -a 1 -x {0.0 4.0 16 ------- null}
h -t 0.06 -s 0 -d 2 -p cbr -e 210 -c 1 -i 22 -a 1 -x {0.0 4.0 -1 ------- null}
r -t 0.060434 -s 3 -d 4 -p cbr -e 210 -c 1 -i 13 -a 1 -x {0.0 4.0 9 ------- null}
r -t 0.060466 -s 3 -d 2 -p ack -e 40 -c 2 -i 18 -a 2 -x {5.0 1.0 1 ------- null}
+ -t 0.060466 -s 2 -d 1 -p ack -e 40 -c 2 -i 18 -a 2 -x {5.0 1.0 1 ------- null}
- -t 0.060466 -s 2 -d 1 -p ack -e 40 -c 2 -i 18 -a 2 -x {5.0 1.0 1 ------- null}
h -t 0.060466 -s 2 -d 1 -p ack -e 40 -c 2 -i 18 -a 2 -x {5.0 1.0 -1 ------- null}
r -t 0.060466 -s 5 -d 3 -p ack -e 40 -c 2 -i 21 -a 2 -x {5.0 1.0 2 ------- null}
+ -t 0.060466 -s 3 -d 2 -p ack -e 40 -c 2 -i 21 -a 2 -x {5.0 1.0 2 ------- null}
- -t 0.060466 -s 3 -d 2 -p ack -e 40 -c 2 -i 21 -a 2 -x {5.0 1.0 2 ------- null}
h -t 0.060466 -s 3 -d 2 -p ack -e 40 -c 2 -i 21 -a 2 -x {5.0 1.0 -1 ------- null}
r -t 0.061458 -s 2 -d 3 -p cbr -e 210 -c 1 -i 15 -a 1 -x {0.0 4.0 11 ------- null}
+ -t 0.061458 -s 3 -d 4 -p cbr -e 210 -c 1 -i 15 -a 1 -x {0.0 4.0 11 ------- null}
- -t 0.061458 -s 3 -d 4 -p cbr -e 210 -c 1 -i 15 -a 1 -x {0.0 4.0 11 ------- null}
h -t 0.061458 -s 3 -d 4 -p cbr -e 210 -c 1 -i 15 -a 1 -x {0.0 4.0 -1 ------- null}
r -t 0.062114 -s 3 -d 4 -p cbr -e 210 -c 1 -i 14 -a 1 -x {0.0 4.0 10 ------- null}
r -t 0.062168 -s 0 -d 2 -p cbr -e 210 -c 1 -i 22 -a 1 -x {0.0 4.0 16 ------- null}
+ -t 0.062168 -s 2 -d 3 -p cbr -e 210 -c 1 -i 22 -a 1 -x {0.0 4.0 16 ------- null}
- -t 0.062168 -s 2 -d 3 -p cbr -e 210 -c 1 -i 22 -a 1 -x {0.0 4.0 16 ------- null}
h -t 0.062168 -s 2 -d 3 -p cbr -e 210 -c 1 -i 22 -a 1 -x {0.0 4.0 -1 ------- null}
r -t 0.06253 -s 2 -d 1 -p ack -e 40 -c 2 -i 18 -a 2 -x {5.0 1.0 1 ------- null}
+ -t 0.06253 -s 1 -d 2 -p tcp -e 1040 -c 2 -i 23 -a 2 -x {1.0 5.0 3 ------- null}
- -t 0.06253 -s 1 -d 2 -p tcp -e 1040 -c 2 -i 23 -a 2 -x {1.0 5.0 3 ------- null}
h -t 0.06253 -s 1 -d 2 -p tcp -e 1040 -c 2 -i 23 -a 2 -x {1.0 5.0 -1 ------- null}
+ -t 0.06253 -s 1 -d 2 -p tcp -e 1040 -c 2 -i 24 -a 2 -x {1.0 5.0 4 ------- null}
r -t 0.063138 -s 2 -d 3 -p cbr -e 210 -c 1 -i 16 -a 1 -x {0.0 4.0 12 ------- null}
+ -t 0.063138 -s 3 -d 4 -p cbr -e 210 -c 1 -i 16 -a 1 -x {0.0 4.0 12 ------- null}
- -t 0.063138 -s 3 -d 4 -p cbr -e 210 -c 1 -i 16 -a 1 -x {0.0 4.0 12 ------- null}
h -t 0.063138 -s 3 -d 4 -p cbr -e 210 -c 1 -i 16 -a 1 -x {0.0 4.0 -1 ------- null}
+ -t 0.06375 -s 0 -d 2 -p cbr -e 210 -c 1 -i 25 -a 1 -x {0.0 4.0 17 ------- null}
- -t 0.06375 -s 0 -d 2 -p cbr -e 210 -c 1 -i 25 -a 1 -x {0.0 4.0 17 ------- null}
h -t 0.06375 -s 0 -d 2 -p cbr -e 210 -c 1 -i 25 -a 1 -x {0.0 4.0 -1 ------- null}
r -t 0.063794 -s 3 -d 4 -p cbr -e 210 -c 1 -i 15 -a 1 -x {0.0 4.0 11 ------- null}
- -t 0.064194 -s 1 -d 2 -p tcp -e 1040 -c 2 -i 24 -a 2 -x {1.0 5.0 4 ------- null}
h -t 0.064194 -s 1 -d 2 -p tcp -e 1040 -c 2 -i 24 -a 2 -x {1.0 5.0 -1 ------- null}
r -t 0.064818 -s 2 -d 3 -p cbr -e 210 -c 1 -i 17 -a 1 -x {0.0 4.0 13 ------- null}
+ -t 0.064818 -s 3 -d 4 -p cbr -e 210 -c 1 -i 17 -a 1 -x {0.0 4.0 13 ------- null}
- -t 0.064818 -s 3 -d 4 -p cbr -e 210 -c 1 -i 17 -a 1 -x {0.0 4.0 13 ------- null}
h -t 0.064818 -s 3 -d 4 -p cbr -e 210 -c 1 -i 17 -a 1 -x {0.0 4.0 -1 ------- null}
r -t 0.065474 -s 3 -d 4 -p cbr -e 210 -c 1 -i 16 -a 1 -x {0.0 4.0 12 ------- null}
r -t 0.065918 -s 0 -d 2 -p cbr -e 210 -c 1 -i 25 -a 1 -x {0.0 4.0 17 ------- null}
+ -t 0.065918 -s 2 -d 3 -p cbr -e 210 -c 1 -i 25 -a 1 -x {0.0 4.0 17 ------- null}
- -t 0.065918 -s 2 -d 3 -p cbr -e 210 -c 1 -i 25 -a 1 -x {0.0 4.0 17 ------- null}
h -t 0.065918 -s 2 -d 3 -p cbr -e 210 -c 1 -i 25 -a 1 -x {0.0 4.0 -1 ------- null}
r -t 0.066194 -s 1 -d 2 -p tcp -e 1040 -c 2 -i 23 -a 2 -x {1.0 5.0 3 ------- null}
+ -t 0.066194 -s 2 -d 3 -p tcp -e 1040 -c 2 -i 23 -a 2 -x {1.0 5.0 3 ------- null}
r -t 0.066498 -s 2 -d 3 -p cbr -e 210 -c 1 -i 19 -a 1 -x {0.0 4.0 14 ------- null}
+ -t 0.066498 -s 3 -d 4 -p cbr -e 210 -c 1 -i 19 -a 1 -x {0.0 4.0 14 ------- null}
- -t 0.066498 -s 3 -d 4 -p cbr -e 210 -c 1 -i 19 -a 1 -x {0.0 4.0 14 ------- null}
h -t 0.066498 -s 3 -d 4 -p cbr -e 210 -c 1 -i 19 -a 1 -x {0.0 4.0 -1 ------- null}
r -t 0.067154 -s 3 -d 4 -p cbr -e 210 -c 1 -i 17 -a 1 -x {0.0 4.0 13 ------- null}
+ -t 0.0675 -s 0 -d 2 -p cbr -e 210 -c 1 -i 26 -a 1 -x {0.0 4.0 18 ------- null}
- -t 0.0675 -s 0 -d 2 -p cbr -e 210 -c 1 -i 26 -a 1 -x {0.0 4.0 18 ------- null}
h -t 0.0675 -s 0 -d 2 -p cbr -e 210 -c 1 -i 26 -a 1 -x {0.0 4.0 -1 ------- null}
- -t 0.067598 -s 2 -d 3 -p tcp -e 1040 -c 2 -i 23 -a 2 -x {1.0 5.0 3 ------- null}
h -t 0.067598 -s 2 -d 3 -p tcp -e 1040 -c 2 -i 23 -a 2 -x {1.0 5.0 -1 ------- null}
r -t 0.067858 -s 1 -d 2 -p tcp -e 1040 -c 2 -i 24 -a 2 -x {1.0 5.0 4 ------- null}
+ -t 0.067858 -s 2 -d 3 -p tcp -e 1040 -c 2 -i 24 -a 2 -x {1.0 5.0 4 ------- null}
r -t 0.068178 -s 2 -d 3 -p cbr -e 210 -c 1 -i 20 -a 1 -x {0.0 4.0 15 ------- null}
+ -t 0.068178 -s 3 -d 4 -p cbr -e 210 -c 1 -i 20 -a 1 -x {0.0 4.0 15 ------- null}
- -t 0.068178 -s 3 -d 4 -p cbr -e 210 -c 1 -i 20 -a 1 -x {0.0 4.0 15 ------- null}
h -t 0.068178 -s 3 -d 4 -p cbr -e 210 -c 1 -i 20 -a 1 -x {0.0 4.0 -1 ------- null}
r -t 0.068786 -s 3 -d 2 -p ack -e 40 -c 2 -i 21 -a 2 -x {5.0 1.0 2 ------- null}
+ -t 0.068786 -s 2 -d 1 -p ack -e 40 -c 2 -i 21 -a 2 -x {5.0 1.0 2 ------- null}
- -t 0.068786 -s 2 -d 1 -p ack -e 40 -c 2 -i 21 -a 2 -x {5.0 1.0 2 ------- null}
h -t 0.068786 -s 2 -d 1 -p ack -e 40 -c 2 -i 21 -a 2 -x {5.0 1.0 -1 ------- null}
r -t 0.068834 -s 3 -d 4 -p cbr -e 210 -c 1 -i 19 -a 1 -x {0.0 4.0 14 ------- null}
r -t 0.069668 -s 0 -d 2 -p cbr -e 210 -c 1 -i 26 -a 1 -x {0.0 4.0 18 ------- null}
+ -t 0.069668 -s 2 -d 3 -p cbr -e 210 -c 1 -i 26 -a 1 -x {0.0 4.0 18 ------- null}
r -t 0.070514 -s 3 -d 4 -p cbr -e 210 -c 1 -i 20 -a 1 -x {0.0 4.0 15 ------- null}
r -t 0.07085 -s 2 -d 1 -p ack -e 40 -c 2 -i 21 -a 2 -x {5.0 1.0 2 ------- null}
+ -t 0.07085 -s 1 -d 2 -p tcp -e 1040 -c 2 -i 27 -a 2 -x {1.0 5.0 5 ------- null}
- -t 0.07085 -s 1 -d 2 -p tcp -e 1040 -c 2 -i 27 -a 2 -x {1.0 5.0 5 ------- null}
h -t 0.07085 -s 1 -d 2 -p tcp -e 1040 -c 2 -i 27 -a 2 -x {1.0 5.0 -1 ------- null}
+ -t 0.07085 -s 1 -d 2 -p tcp -e 1040 -c 2 -i 28 -a 2 -x {1.0 5.0 6 ------- null}
+ -t 0.07125 -s 0 -d 2 -p cbr -e 210 -c 1 -i 29 -a 1 -x {0.0 4.0 19 ------- null}
- -t 0.07125 -s 0 -d 2 -p cbr -e 210 -c 1 -i 29 -a 1 -x {0.0 4.0 19 ------- null}
h -t 0.07125 -s 0 -d 2 -p cbr -e 210 -c 1 -i 29 -a 1 -x {0.0 4.0 -1 ------- null}
r -t 0.071848 -s 2 -d 3 -p cbr -e 210 -c 1 -i 22 -a 1 -x {0.0 4.0 16 ------- null}
+ -t 0.071848 -s 3 -d 4 -p cbr -e 210 -c 1 -i 22 -a 1 -x {0.0 4.0 16 ------- null}
- -t 0.071848 -s 3 -d 4 -p cbr -e 210 -c 1 -i 22 -a 1 -x {0.0 4.0 16 ------- null}
h -t 0.071848 -s 3 -d 4 -p cbr -e 210 -c 1 -i 22 -a 1 -x {0.0 4.0 -1 ------- null}
- -t 0.072514 -s 1 -d 2 -p tcp -e 1040 -c 2 -i 28 -a 2 -x {1.0 5.0 6 ------- null}
h -t 0.072514 -s 1 -d 2 -p tcp -e 1040 -c 2 -i 28 -a 2 -x {1.0 5.0 -1 ------- null}
r -t 0.073418 -s 0 -d 2 -p cbr -e 210 -c 1 -i 29 -a 1 -x {0.0 4.0 19 ------- null}
+ -t 0.073418 -s 2 -d 3 -p cbr -e 210 -c 1 -i 29 -a 1 -x {0.0 4.0 19 ------- null}
r -t 0.074184 -s 3 -d 4 -p cbr -e 210 -c 1 -i 22 -a 1 -x {0.0 4.0 16 ------- null}
r -t 0.074514 -s 1 -d 2 -p tcp -e 1040 -c 2 -i 27 -a 2 -x {1.0 5.0 5 ------- null}
+ -t 0.074514 -s 2 -d 3 -p tcp -e 1040 -c 2 -i 27 -a 2 -x {1.0 5.0 5 ------- null}
+ -t 0.075 -s 0 -d 2 -p cbr -e 210 -c 1 -i 30 -a 1 -x {0.0 4.0 20 ------- null}
- -t 0.075 -s 0 -d 2 -p cbr -e 210 -c 1 -i 30 -a 1 -x {0.0 4.0 20 ------- null}
h -t 0.075 -s 0 -d 2 -p cbr -e 210 -c 1 -i 30 -a 1 -x {0.0 4.0 -1 ------- null}
r -t 0.075598 -s 2 -d 3 -p cbr -e 210 -c 1 -i 25 -a 1 -x {0.0 4.0 17 ------- null}
+ -t 0.075598 -s 3 -d 4 -p cbr -e 210 -c 1 -i 25 -a 1 -x {0.0 4.0 17 ------- null}
- -t 0.075598 -s 3 -d 4 -p cbr -e 210 -c 1 -i 25 -a 1 -x {0.0 4.0 17 ------- null}
h -t 0.075598 -s 3 -d 4 -p cbr -e 210 -c 1 -i 25 -a 1 -x {0.0 4.0 -1 ------- null}
- -t 0.075918 -s 2 -d 3 -p tcp -e 1040 -c 2 -i 24 -a 2 -x {1.0 5.0 4 ------- null}
h -t 0.075918 -s 2 -d 3 -p tcp -e 1040 -c 2 -i 24 -a 2 -x {1.0 5.0 -1 ------- null}
r -t 0.076178 -s 1 -d 2 -p tcp -e 1040 -c 2 -i 28 -a 2 -x {1.0 5.0 6 ------- null}
+ -t 0.076178 -s 2 -d 3 -p tcp -e 1040 -c 2 -i 28 -a 2 -x {1.0 5.0 6 ------- null}
r -t 0.077168 -s 0 -d 2 -p cbr -e 210 -c 1 -i 30 -a 1 -x {0.0 4.0 20 ------- null}
+ -t 0.077168 -s 2 -d 3 -p cbr -e 210 -c 1 -i 30 -a 1 -x {0.0 4.0 20 ------- null}
r -t 0.077934 -s 3 -d 4 -p cbr -e 210 -c 1 -i 25 -a 1 -x {0.0 4.0 17 ------- null}
+ -t 0.07875 -s 0 -d 2 -p cbr -e 210 -c 1 -i 31 -a 1 -x {0.0 4.0 21 ------- null}
- -t 0.07875 -s 0 -d 2 -p cbr -e 210 -c 1 -i 31 -a 1 -x {0.0 4.0 21 ------- null}
h -t 0.07875 -s 0 -d 2 -p cbr -e 210 -c 1 -i 31 -a 1 -x {0.0 4.0 -1 ------- null}
r -t 0.080918 -s 0 -d 2 -p cbr -e 210 -c 1 -i 31 -a 1 -x {0.0 4.0 21 ------- null}
+ -t 0.080918 -s 2 -d 3 -p cbr -e 210 -c 1 -i 31 -a 1 -x {0.0 4.0 21 ------- null}
+ -t 0.0825 -s 0 -d 2 -p cbr -e 210 -c 1 -i 32 -a 1 -x {0.0 4.0 22 ------- null}
- -t 0.0825 -s 0 -d 2 -p cbr -e 210 -c 1 -i 32 -a 1 -x {0.0 4.0 22 ------- null}
h -t 0.0825 -s 0 -d 2 -p cbr -e 210 -c 1 -i 32 -a 1 -x {0.0 4.0 -1 ------- null}
r -t 0.083918 -s 2 -d 3 -p tcp -e 1040 -c 2 -i 23 -a 2 -x {1.0 5.0 3 ------- null}
+ -t 0.083918 -s 3 -d 5 -p tcp -e 1040 -c 2 -i 23 -a 2 -x {1.0 5.0 3 ------- null}
- -t 0.083918 -s 3 -d 5 -p tcp -e 1040 -c 2 -i 23 -a 2 -x {1.0 5.0 3 ------- null}
h -t 0.083918 -s 3 -d 5 -p tcp -e 1040 -c 2 -i 23 -a 2 -x {1.0 5.0 -1 ------- null}
- -t 0.084238 -s 2 -d 3 -p cbr -e 210 -c 1 -i 26 -a 1 -x {0.0 4.0 18 ------- null}
h -t 0.084238 -s 2 -d 3 -p cbr -e 210 -c 1 -i 26 -a 1 -x {0.0 4.0 -1 ------- null}
r -t 0.084668 -s 0 -d 2 -p cbr -e 210 -c 1 -i 32 -a 1 -x {0.0 4.0 22 ------- null}
+ -t 0.084668 -s 2 -d 3 -p cbr -e 210 -c 1 -i 32 -a 1 -x {0.0 4.0 22 ------- null}
- -t 0.085918 -s 2 -d 3 -p cbr -e 210 -c 1 -i 29 -a 1 -x {0.0 4.0 19 ------- null}
h -t 0.085918 -s 2 -d 3 -p cbr -e 210 -c 1 -i 29 -a 1 -x {0.0 4.0 -1 ------- null}
+ -t 0.08625 -s 0 -d 2 -p cbr -e 210 -c 1 -i 33 -a 1 -x {0.0 4.0 23 ------- null}
- -t 0.08625 -s 0 -d 2 -p cbr -e 210 -c 1 -i 33 -a 1 -x {0.0 4.0 23 ------- null}
h -t 0.08625 -s 0 -d 2 -p cbr -e 210 -c 1 -i 33 -a 1 -x {0.0 4.0 -1 ------- null}
r -t 0.087582 -s 3 -d 5 -p tcp -e 1040 -c 2 -i 23 -a 2 -x {1.0 5.0 3 ------- null}
+ -t 0.087582 -s 5 -d 3 -p ack -e 40 -c 2 -i 34 -a 2 -x {5.0 1.0 3 ------- null}
- -t 0.087582 -s 5 -d 3 -p ack -e 40 -c 2 -i 34 -a 2 -x {5.0 1.0 3 ------- null}
h -t 0.087582 -s 5 -d 3 -p ack -e 40 -c 2 -i 34 -a 2 -x {5.0 1.0 -1 ------- null}
- -t 0.087598 -s 2 -d 3 -p tcp -e 1040 -c 2 -i 27 -a 2 -x {1.0 5.0 5 ------- null}
h -t 0.087598 -s 2 -d 3 -p tcp -e 1040 -c 2 -i 27 -a 2 -x {1.0 5.0 -1 ------- null}
r -t 0.0884180000000001 -s 0 -d 2 -p cbr -e 210 -c 1 -i 33 -a 1 -x {0.0 4.0 23 ------- null}
+ -t 0.0884180000000001 -s 2 -d 3 -p cbr -e 210 -c 1 -i 33 -a 1 -x {0.0 4.0 23 ------- null}
r -t 0.089646 -s 5 -d 3 -p ack -e 40 -c 2 -i 34 -a 2 -x {5.0 1.0 3 ------- null}