V -t * -v 1.0a5 -a 0
A -t * -n 1 -p 0 -o 0x7fffffff -c 30 -a 1
A -t * -h 1 -m 1073741823 -s 0
c -t * -i 4 -n green
c -t * -i 5 -n orange
c -t * -i 1 -n blue
c -t * -i 2 -n red
c -t * -i 3 -n brown
n -t * -a 4 -s 4 -S UP -v circle -c green -i green
n -t * -a 0 -s 0 -S UP -v circle -c blue -i blue
n -t * -a 5 -s 5 -S UP -v circle -c purple -i purple
n -t * -a 1 -s 1 -S UP -v circle -c red -i red
n -t * -a 2 -s 2 -S UP -v circle -c black -i black
n -t * -a 3 -s 3 -S UP -v circle -c brown -i brown
l -t * -s 0 -d 2 -S UP -r 10000000 -D 0.002 -c black
l -t * -s 1 -d 2 -S UP -r 10000000 -D 0.0040000000000000001 -c black
l -t * -s 2 -d 3 -S UP -r 400000 -D 0.0080000000000000002 -c black
l -t * -s 3 -d 4 -S UP -r 3000000 -D 0.002 -c black
l -t * -s 3 -d 5 -S UP -r 5000000 -D 0.002 -c black
+ -t 0 -s 0 -d 2 -p cbr -e 210 -c 1 -i 0 -a 1 -x {0.0 4.0 0 ------- null}
- -t 0 -s 0 -d 2 -p cbr -e 210 -c 1 -i 0 -a 1 -x {0.0 4.0 0 ------- null}
h -t 0 -s 0 -d 2 -p cbr -e 210 -c 1 -i 0 -a 1 -x {0.0 4.0 -1 ------- null}
+ -t 0 -s 1 -d 2 -p tcp -e 40 -c 2 -i 1 -a 2 -x {1.0 5.0 0 ------- null}
- -t 0 -s 1 -d 2 -p tcp -e 40 -c 2 -i 1 -a 2 -x {1.0 5.0 0 ------- null}
h -t 0 -s 1 -d 2 -p tcp -e 40 -c 2 -i 1 -a 2 -x {1.0 5.0 -1 ------- null}
r -t 0.002168 -s 0 -d 2 -p cbr -e 210 -c 1 -i 0 -a 1 -x {0.0 4.0 0 ------- null}
+ -t 0.002168 -s 2 -d 3 -p cbr -e 210 -c 1 -i 0 -a 1 -x {0.0 4.0 0 ------- null}
- -t 0.002168 -s 2 -d 3 -p cbr -e 210 -c 1 -i 0 -a 1 -x {0.0 4.0 0 ------- null}
h -t 0.002168 -s 2 -d 3 -p cbr -e 210 -c 1 -i 0 -a 1 -x {0.0 4.0 -1 ------- null}
+ -t 0.00375 -s 0 -d 2 -p cbr -e 210 -c 1 -i 2 -a 1 -x {0.0 4.0 1 ------- null}
- -t 0.00375 -s 0 -d 2 -p cbr -e 210 -c 1 -i 2 -a 1 -x {0.0 4.0 1 ------- null}
h -t 0.00375 -s 0 -d 2 -p cbr -e 210 -c 1 -i 2 -a 1 -x {0.0 4.0 -1 ------- null}
r -t 0.004032 -s 1 -d 2 -p tcp -e 40 -c 2 -i 1 -a 2 -x {1.0 5.0 0 ------- null}
+ -t 0.004032 -s 2 -d 3 -p tcp -e 40 -c 2 -i 1 -a 2 -x {1.0 5.0 0 ------- null}
r -t 0.005918 -s 0 -d 2 -p cbr -e 210 -c 1 -i 2 -a 1 -x {0.0 4.0 1 ------- null}
+ -t 0.005918 -s 2 -d 3 -p cbr -e 210 -c 1 -i 2 -a 1 -x {0.0 4.0 1 ------- null}
- -t 0.006368 -s 2 -d 3 -p tcp -e 40 -c 2 -i 1 -a 2 -x {1.0 5.0 0 ------- null}
h -t 0.006368 -s 2 -d 3 -p tcp -e 40 -c 2 -i 1 -a 2 -x {1.0 5.0 -1 ------- null}
- -t 0.007168 -s 2 -d 3 -p cbr -e 210 -c 1 -i 2 -a 1 -x {0.0 4.0 1 ------- null}
h -t 0.007168 -s 2 -d 3 -p cbr -e 210 -c 1 -i 2 -a 1 -x {0.0 4.0 -1 ------- null}
+ -t 0.0075 -s 0 -d 2 -p cbr -e 210 -c 1 -i 3 -a 1 -x {0.0 4.0 2 ------- null}
- -t 0.0075 -s 0 -d 2 -p cbr -e 210 -c 1 -i 3 -a 1 -x {0.0 4.0 2 ------- null}
h -t 0.0075 -s 0 -d 2 -p cbr -e 210 -c 1 -i 3 -a 1 -x {0.0 4.0 -1 ------- null}
r -t 0.009668 -s 0 -d 2 -p cbr -e 210 -c 1 -i 3 -a 1 -x {0.0 4.0 2 ------- null}
+ -t 0.009668 -s 2 -d 3 -p cbr -e 210 -c 1 -i 3 -a 1 -x {0.0 4.0 2 ------- null}
+ -t 0.01125 -s 0 -d 2 -p cbr -e 210 -c 1 -i 4 -a 1 -x {0.0 4.0 3 ------- null}
- -t 0.01125 -s 0 -d 2 -p cbr -e 210 -c 1 -i 4 -a 1 -x {0.0 4.0 3 ------- null}
h -t 0.01125 -s 0 -d 2 -p cbr -e 210 -c 1 -i 4 -a 1 -x {0.0 4.0 -1 ------- null}
- -t 0.011368 -s 2 -d 3 -p cbr -e 210 -c 1 -i 3 -a 1 -x {0.0 4.0 2 ------- null}
h -t 0.011368 -s 2 -d 3 -p cbr -e 210 -c 1 -i 3 -a 1 -x {0.0 4.0 -1 ------- null}
r -t 0.013418 -s 0 -d 2 -p cbr -e 210 -c 1 -i 4 -a 1 -x {0.0 4.0 3 ------- null}
+ -t 0.013418 -s 2 -d 3 -p cbr -e 210 -c 1 -i 4 -a 1 -x {0.0 4.0 3 ------- null}
r -t 0.014368 -s 2 -d 3 -p cbr -e 210 -c 1 -i 0 -a 1 -x {0.0 4.0 0 ------- null}
+ -t 0.014368 -s 3 -d 4 -p cbr -e 210 -c 1 -i 0 -a 1 -x {0.0 4.0 0 ------- null}
- -t 0.014368 -s 3 -d 4 -p cbr -e 210 -c 1 -i 0 -a 1 -x {0.0 4.0 0 ------- null}
h -t 0.014368 -s 3 -d 4 -p cbr -e 210 -c 1 -i 0 -a 1 -x {0.0 4.0 -1 ------- null}
+ -t 0.015 -s 0 -d 2 -p cbr -e 210 -c 1 -i 5 -a 1 -x {0.0 4.0 4 ------- null}
- -t 0.015 -s 0 -d 2 -p cbr -e 210 -c 1 -i 5 -a 1 -x {0.0 4.0 4 ------- null}
h -t 0.015 -s 0 -d 2 -p cbr -e 210 -c 1 -i 5 -a 1 -x {0.0 4.0 -1 ------- null}
r -t 0.015168 -s 2 -d 3 -p tcp -e 40 -c 2 -i 1 -a 2 -x {1.0 5.0 0 ------- null}
+ -t 0.015168 -s 3 -d 5 -p tcp -e 40 -c 2 -i 1 -a 2 -x {1.0 5.0 0 ------- null}
- -t 0.015168 -s 3 -d 5 -p tcp -e 40 -c 2 -i 1 -a 2 -x {1.0 5.0 0 ------- null}
h -t 0.015168 -s 3 -d 5 -p tcp -e 40 -c 2 -i 1 -a 2 -x {1.0 5.0 -1 ------- null}
- -t 0.015568 -s 2 -d 3 -p cbr -e 210 -c 1 -i 4 -a 1 -x {0.0 4.0 3 ------- null}
h -t 0.015568 -s 2 -d 3 -p cbr -e 210 -c 1 -i 4 -a 1 -x {0.0 4.0 -1 ------- null}
r -t 0.016928 -s 3 -d 4 -p cbr -e 210 -c 1 -i 0 -a 1 -x {0.0 4.0 0 ------- null}
r -t 0.017168 -s 0 -d 2 -p cbr -e 210 -c 1 -i 5 -a 1 -x {0.0 4.0 4 ------- null}
+ -t 0.017168 -s 2 -d 3 -p cbr -e 210 -c 1 -i 5 -a 1 -x {0.0 4.0 4 ------- null}
r -t 0.017232 -s 3 -d 5 -p tcp -e 40 -c 2 -i 1 -a 2 -x {1.0 5.0 0 ------- null}
+ -t 0.017232 -s 5 -d 3 -p ack -e 40 -c 2 -i 6 -a 2 -x {5.0 1.0 0 ------- null}
- -t 0.017232 -s 5 -d 3 -p ack -e 40 -c 2 -i 6 -a 2 -x {5.0 1.0 0 ------- null}
h -t 0.017232 -s 5 -d 3 -p ack -e 40 -c 2 -i 6 -a 2 -x {5.0 1.0 -1 ------- null}
+ -t 0.01875 -s 0 -d 2 -p cbr -e 210 -c 1 -i 7 -a 1 -x {0.0 4.0 5 ------- null}
- -t 0.01875 -s 0 -d 2 -p cbr -e 210 -c 1 -i 7 -a 1 -x {0.0 4.0 5 ------- null}
h -t 0.01875 -s 0 -d 2 -p cbr -e 210 -c 1 -i 7 -a 1 -x {0.0 4.0 -1 ------- null}
r -t 0.019296 -s 5 -d 3 -p ack -e 40 -c 2 -i 6 -a 2 -x {5.0 1.0 0 ------- null}
+ -t 0.019296 -s 3 -d 2 -p ack -e 40 -c 2 -i 6 -a 2 -x {5.0 1.0 0 ------- null}
- -t 0.019296 -s 3 -d 2 -p ack -e 40 -c 2 -i 6 -a 2 -x {5.0 1.0 0 ------- null}
h -t 0.019296 -s 3 -d 2 -p ack -e 40 -c 2 -i 6 -a 2 -x {5.0 1.0 -1 ------- null}
r -t 0.019368 -s 2 -d 3 -p cbr -e 210 -c 1 -i 2 -a 1 -x {0.0 4.0 1 ------- null}
+ -t 0.019368 -s 3 -d 4 -p cbr -e 210 -c 1 -i 2 -a 1 -x {0.0 4.0 1 ------- null}
- -t 0.019368 -s 3 -d 4 -p cbr -e 210 -c 1 -i 2 -a 1 -x {0.0 4.0 1 ------- null}
h -t 0.019368 -s 3 -d 4 -p cbr -e 210 -c 1 -i 2 -a 1 -x {0.0 4.0 -1 ------- null}
- -t 0.019768 -s 2 -d 3 -p cbr -e 210 -c 1 -i 5 -a 1 -x {0.0 4.0 4 ------- null}
h -t 0.019768 -s 2 -d 3 -p cbr -e 210 -c 1 -i 5 -a 1 -x {0.0 4.0 -1 ------- null}
r -t 0.020918 -s 0 -d 2 -p cbr -e 210 -c 1 -i 7 -a 1 -x {0.0 4.0 5 ------- null}
+ -t 0.020918 -s 2 -d 3 -p cbr -e 210 -c 1 -i 7 -a 1 -x {0.0 4.0 5 ------- null}
r -t 0.021928 -s 3 -d 4 -p cbr -e 210 -c 1 -i 2 -a 1 -x {0.0 4.0 1 ------- null}
+ -t 0.0225 -s 0 -d 2 -p cbr -e 210 -c 1 -i 8 -a 1 -x {0.0 4.0 6 ------- null}
- -t 0.0225 -s 0 -d 2 -p cbr -e 210 -c 1 -i 8 -a 1 -x {0.0 4.0 6 ------- null}
h -t 0.0225 -s 0 -d 2 -p cbr -e 210 -c 1 -i 8 -a 1 -x {0.0 4.0 -1 ------- null}
r -t 0.023568 -s 2 -d 3 -p cbr -e 210 -c 1 -i 3 -a 1 -x {0.0 4.0 2 ------- null}
+ -t 0.023568 -s 3 -d 4 -p cbr -e 210 -c 1 -i 3 -a 1 -x {0.0 4.0 2 ------- null}
- -t 0.023568 -s 3 -d 4 -p cbr -e 210 -c 1 -i 3 -a 1 -x {0.0 4.0 2 ------- null}
h -t 0.023568 -s 3 -d 4 -p cbr -e 210 -c 1 -i 3 -a 1 -x {0.0 4.0 -1 ------- null}
- -t 0.023968 -s 2 -d 3 -p cbr -e 210 -c 1 -i 7 -a 1 -x {0.0 4.0 5 ------- null}
h -t 0.023968 -s 2 -d 3 -p cbr -e 210 -c 1 -i 7 -a 1 -x {0.0 4.0 -1 ------- null}
r -t 0.024668 -s 0 -d 2 -p cbr -e 210 -c 1 -i 8 -a 1 -x {0.0 4.0 6 ------- null}
+ -t 0.024668 -s 2 -d 3 -p cbr -e 210 -c 1 -i 8 -a 1 -x {0.0 4.0 6 ------- null}
r -t 0.026128 -s 3 -d 4 -p cbr -e 210 -c 1 -i 3 -a 1 -x {0.0 4.0 2 ------- null}
+ -t 0.02625 -s 0 -d 2 -p cbr -e 210 -c 1 -i 9 -a 1 -x {0.0 4.0 7 ------- null}
- -t 0.02625 -s 0 -d 2 -p cbr -e 210 -c 1 -i 9 -a 1 -x {0.0 4.0 7 ------- null}
h -t 0.02625 -s 0 -d 2 -p cbr -e 210 -c 1 -i 9 -a 1 -x {0.0 4.0 -1 ------- null}
r -t 0.027768 -s 2 -d 3 -p cbr -e 210 -c 1 -i 4 -a 1 -x {0.0 4.0 3 ------- null}
+ -t 0.027768 -s 3 -d 4 -p cbr -e 210 -c 1 -i 4 -a 1 -x {0.0 4.0 3 ------- null}
- -t 0.027768 -s 3 -d 4 -p cbr -e 210 -c 1 -i 4 -a 1 -x {0.0 4.0 3 ------- null}
h -t 0.027768 -s 3 -d 4 -p cbr -e 210 -c 1 -i 4 -a 1 -x {0.0 4.0 -1 ------- null}
r -t 0.028096 -s 3 -d 2 -p ack -e 40 -c 2 -i 6 -a 2 -x {5.0 1.0 0 ------- null}
+ -t 0.028096 -s 2 -d 1 -p ack -e 40 -c 2 -i 6 -a 2 -x {5.0 1.0 0 ------- null}
- -t 0.028096 -s 2 -d 1 -p ack -e 40 -c 2 -i 6 -a 2 -x {5.0 1.0 0 ------- null}
h -t 0.028096 -s 2 -d 1 -p ack -e 40 -c 2 -i 6 -a 2 -x {5.0 1.0 -1 ------- null}
- -t 0.028168 -s 2 -d 3 -p cbr -e 210 -c 1 -i 8 -a 1 -x {0.0 4.0 6 ------- null}
h -t 0.028168 -s 2 -d 3 -p cbr -e 210 -c 1 -i 8 -a 1 -x {0.0 4.0 -1 ------- null}
r -t 0.028418 -s 0 -d 2 -p cbr -e 210 -c 1 -i 9 -a 1 -x {0.0 4.0 7 ------- null}
+ -t 0.028418 -s 2 -d 3 -p cbr -e 210 -c 1 -i 9 -a 1 -x {0.0 4.0 7 ------- null}
+ -t 0.03 -s 0 -d 2 -p cbr -e 210 -c 1 -i 10 -a 1 -x {0.0 4.0 8 ------- null}
- -t 0.03 -s 0 -d 2 -p cbr -e 210 -c 1 -i 10 -a 1 -x {0.0 4.0 8 ------- null}
h -t 0.03 -s 0 -d 2 -p cbr -e 210 -c 1 -i 10 -a 1 -x {0.0 4.0 -1 ------- null}
r -t 0.030328 -s 3 -d 4 -p cbr -e 210 -c 1 -i 4 -a 1 -x {0.0 4.0 3 ------- null}
r -t 0.031968 -s 2 -d 3 -p cbr -e 210 -c 1 -i 5 -a 1 -x {0.0 4.0 4 ------- null}
+ -t 0.031968 -s 3 -d 4 -p cbr -e 210 -c 1 -i 5 -a 1 -x {0.0 4.0 4 ------- null}
- -t 0.031968 -s 3 -d 4 -p cbr -e 210 -c 1 -i 5 -a 1 -x {0.0 4.0 4 ------- null}
h -t 0.031968 -s 3 -d 4 -p cbr -e 210 -c 1 -i 5 -a 1 -x {0.0 4.0 -1 ------- null}
r -t 0.032128 -s 2 -d 1 -p ack -e 40 -c 2 -i 6 -a 2 -x {5.0 1.0 0 ------- null}
+ -t 0.032128 -s 1 -d 2 -p tcp -e 1040 -c 2 -i 11 -a 2 -x {1.0 5.0 1 ------- null}
- -t 0.032128 -s 1 -d 2 -p tcp -e 1040 -c 2 -i 11 -a 2 -x {1.0 5.0 1 ------- null}
h -t 0.032128 -s 1 -d 2 -p tcp -e 1040 -c 2 -i 11 -a 2 -x {1.0 5.0 -1 ------- null}
+ -t 0.032128 -s 1 -d 2 -p tcp -e 1040 -c 2 -i 12 -a 2 -x {1.0 5.0 2 ------- null}
r -t 0.032168 -s 0 -d 2 -p cbr -e 210 -c 1 -i 10 -a 1 -x {0.0 4.0 8 ------- null}
+ -t 0.032168 -s 2 -d 3 -p cbr -e 210 -c 1 -i 10 -a 1 -x {0.0 4.0 8 ------- null}
- -t 0.032368 -s 2 -d 3 -p cbr -e 210 -c 1 -i 9 -a 1 -x {0.0 4.0 7 ------- null}
h -t 0.032368 -s 2 -d 3 -p cbr -e 210 -c 1 -i 9 -a 1 -x {0.0 4.0 -1 ------- null}
- -t 0.03296 -s 1 -d 2 -p tcp -e 1040 -c 2 -i 12 -a 2 -x {1.0 5.0 2 ------- null}
h -t 0.03296 -s 1 -d 2 -p tcp -e 1040 -c 2 -i 12 -a 2 -x {1.0 5.0 -1 ------- null}
+ -t 0.03375 -s 0 -d 2 -p cbr -e 210 -c 1 -i 13 -a 1 -x {0.0 4.0 9 ------- null}
- -t 0.03375 -s 0 -d 2 -p cbr -e 210 -c 1 -i 13 -a 1 -x {0.0 4.0 9 ------- null}
h -t 0.03375 -s 0 -d 2 -p cbr -e 210 -c 1 -i 13 -a 1 -x {0.0 4.0 -1 ------- null}
r -t 0.034528 -s 3 -d 4 -p cbr -e 210 -c 1 -i 5 -a 1 -x {0.0 4.0 4 ------- null}
r -t 0.035918 -s 0 -d 2 -p cbr -e 210 -c 1 -i 13 -a 1 -x {0.0 4.0 9 ------- null}
+ -t 0.035918 -s 2 -d 3 -p cbr -e 210 -c 1 -i 13 -a 1 -x {0.0 4.0 9 ------- null}
r -t 0.036168 -s 2 -d 3 -p cbr -e 210 -c 1 -i 7 -a 1 -x {0.0 4.0 5 ------- null}
+ -t 0.036168 -s 3 -d 4 -p cbr -e 210 -c 1 -i 7 -a 1 -x {0.0 4.0 5 ------- null}
- -t 0.036168 -s 3 -d 4 -p cbr -e 210 -c 1 -i 7 -a 1 -x {0.0 4.0 5 ------- null}
h -t 0.036168 -s 3 -d 4 -p cbr -e 210 -c 1 -i 7 -a 1 -x {0.0 4.0 -1 ------- null}
- -t 0.036568 -s 2 -d 3 -p cbr -e 210 -c 1 -i 10 -a 1 -x {0.0 4.0 8 ------- null}
h -t 0.036568 -s 2 -d 3 -p cbr -e 210 -c 1 -i 10 -a 1 -x {0.0 4.0 -1 ------- null}
r -t 0.03696 -s 1 -d 2 -p tcp -e 1040 -c 2 -i 11 -a 2 -x {1.0 5.0 1 ------- null}
+ -t 0.03696 -s 2 -d 3 -p tcp -e 1040 -c 2 -i 11 -a 2 -x {1.0 5.0 1 ------- null}
+ -t 0.0375 -s 0 -d 2 -p cbr -e 210 -c 1 -i 14 -a 1 -x {0.0 4.0 10 ------- null}
- -t 0.0375 -s 0 -d 2 -p cbr -e 210 -c 1 -i 14 -a 1 -x {0.0 4.0 10 ------- null}
h -t 0.0375 -s 0 -d 2 -p cbr -e 210 -c 1 -i 14 -a 1 -x {0.0 4.0 -1 ------- null}
r -t 0.037792 -s 1 -d 2 -p tcp -e 1040 -c 2 -i 12 -a 2 -x {1.0 5.0 2 ------- null}
+ -t 0.037792 -s 2 -d 3 -p tcp -e 1040 -c 2 -i 12 -a 2 -x {1.0 5.0 2 ------- null}
r -t 0.038728 -s 3 -d 4 -p cbr -e 210 -c 1 -i 7 -a 1 -x {0.0 4.0 5 ------- null}
r -t 0.039668 -s 0 -d 2 -p cbr -e 210 -c 1 -i 14 -a 1 -x {0.0 4.0 10 ------- null}
+ -t 0.039668 -s 2 -d 3 -p cbr -e 210 -c 1 -i 14 -a 1 -x {0.0 4.0 10 ------- null}
r -t 0.040368 -s 2 -d 3 -p cbr -e 210 -c 1 -i 8 -a 1 -x {0.0 4.0 6 ------- null}
+ -t 0.040368 -s 3 -d 4 -p cbr -e 210 -c 1 -i 8 -a 1 -x {0.0 4.0 6 ------- null}
- -t 0.040368 -s 3 -d 4 -p cbr -e 210 -c 1 -i 8 -a 1 -x {0.0 4.0 6 ------- null}
h -t 0.040368 -s 3 -d 4 -p cbr -e 210 -c 1 -i 8 -a 1 -x {0.0 4.0 -1 ------- null}
- -t 0.040768 -s 2 -d 3 -p cbr -e 210 -c 1 -i 13 -a 1 -x {0.0 4.0 9 ------- null}
h -t 0.040768 -s 2 -d 3 -p cbr -e 210 -c 1 -i 13 -a 1 -x {0.0 4.0 -1 ------- null}
+ -t 0.04125 -s 0 -d 2 -p cbr -e 210 -c 1 -i 15 -a 1 -x {0.0 4.0 11 ------- null}
- -t 0.04125 -s 0 -d 2 -p cbr -e 210 -c 1 -i 15 -a 1 -x {0.0 4.0 11 ------- null}
h -t 0.04125 -s 0 -d 2 -p cbr -e 210 -c 1 -i 15 -a 1 -x {0.0 4.0 -1 ------- null}
r -t 0.042928 -s 3 -d 4 -p cbr -e 210 -c 1 -i 8 -a 1 -x {0.0 4.0 6 ------- null}
r -t 0.043418 -s 0 -d 2 -p cbr -e 210 -c 1 -i 15 -a 1 -x {0.0 4.0 11 ------- null}
+ -t 0.043418 -s 2 -d 3 -p cbr -e 210 -c 1 -i 15 -a 1 -x {0.0 4.0 11 ------- null}
r -t 0.044568 -s 2 -d 3 -p cbr -e 210 -c 1 -i 9 -a 1 -x {0.0 4.0 7 ------- null}
+ -t 0.044568 -s 3 -d 4 -p cbr -e 210 -c 1 -i 9 -a 1 -x {0.0 4.0 7 ------- null}
- -t 0.044568 -s 3 -d 4 -p cbr -e 210 -c 1 -i 9 -a 1 -x {0.0 4.0 7 ------- null}
h -t 0.044568 -s 3 -d 4 -p cbr -e 210 -c 1 -i 9 -a 1 -x {0.0 4.0 -1 ------- null}
- -t 0.044968 -s 2 -d 3 -p tcp -e 1040 -c 2 -i 11 -a 2 -x {1.0 5.0 1 ------- null}
h -t 0.044968 -s 2 -d 3 -p tcp -e 1040 -c 2 -i 11 -a 2 -x {1.0 5.0 -1 ------- null}
+ -t 0.045 -s 0 -d 2 -p cbr -e 210 -c 1 -i 16 -a 1 -x {0.0 4.0 12 ------- null}
- -t 0.045 -s 0 -d 2 -p cbr -e 210 -c 1 -i 16 -a 1 -x {0.0 4.0 12 ------- null}
h -t 0.045 -s 0 -d 2 -p cbr -e 210 -c 1 -i 16 -a 1 -x {0.0 4.0 -1 ------- null}
r -t 0.047128 -s 3 -d 4 -p cbr -e 210 -c 1 -i 9 -a 1 -x {0.0 4.0 7 ------- null}
r -t 0.047168 -s 0 -d 2 -p cbr -e 210 -c 1 -i 16 -a 1 -x {0.0 4.0 12 ------- null}
+ -t 0.047168 -s 2 -d 3 -p cbr -e 210 -c 1 -i 16 -a 1 -x {0.0 4.0 12 ------- null}
+ -t 0.04875 -s 0 -d 2 -p cbr -e 210 -c 1 -i 17 -a 1 -x {0.0 4.0 13 ------- null}
- -t 0.04875 -s 0 -d 2 -p cbr -e 210 -c 1 -i 17 -a 1 -x {0.0 4.0 13 ------- null}
h -t 0.04875 -s 0 -d 2 -p cbr -e 210 -c 1 -i 17 -a 1 -x {0.0 4.0 -1 ------- null}
r -t 0.048768 -s 2 -d 3 -p cbr -e 210 -c 1 -i 10 -a 1 -x {0.0 4.0 8 ------- null}
+ -t 0.048768 -s 3 -d 4 -p cbr -e 210 -c 1 -i 10 -a 1 -x {0.0 4.0 8 ------- null}
- -t 0.048768 -s 3 -d 4 -p cbr -e 210 -c 1 -i 10 -a 1 -x {0.0 4.0 8 ------- null}
h -t 0.048768 -s 3 -d 4 -p cbr -e 210 -c 1 -i 10 -a 1 -x {0.0 4.0 -1 ------- null}
r -t 0.050918 -s 0 -d 2 -p cbr -e 210 -c 1 -i 17 -a 1 -x {0.0 4.0 13 ------- null}
+ -t 0.050918 -s 2 -d 3 -p cbr -e 210 -c 1 -i 17 -a 1 -x {0.0 4.0 13 ------- null}
r -t 0.051328 -s 3 -d 4 -p cbr -e 210 -c 1 -i 10 -a 1 -x {0.0 4.0 8 ------- null}
+ -t 0.0525 -s 0 -d 2 -p cbr -e 210 -c 1 -i 18 -a 1 -x {0.0 4.0 14 ------- null}
- -t 0.0525 -s 0 -d 2 -p cbr -e 210 -c 1 -i 18 -a 1 -x {0.0 4.0 14 ------- null}
h -t 0.0525 -s 0 -d 2 -p cbr -e 210 -c 1 -i 18 -a 1 -x {0.0 4.0 -1 ------- null}
r -t 0.052968 -s 2 -d 3 -p cbr -e 210 -c 1 -i 13 -a 1 -x {0.0 4.0 9 ------- null}
+ -t 0.052968 -s 3 -d 4 -p cbr -e 210 -c 1 -i 13 -a 1 -x {0.0 4.0 9 ------- null}
- -t 0.052968 -s 3 -d 4 -p cbr -e 210 -c 1 -i 13 -a 1 -x {0.0 4.0 9 ------- null}
h -t 0.052968 -s 3 -d 4 -p cbr -e 210 -c 1 -i 13 -a 1 -x {0.0 4.0 -1 ------- null}
r -t 0.054668 -s 0 -d 2 -p cbr -e 210 -c 1 -i 18 -a 1 -x {0.0 4.0 14 ------- null}
+ -t 0.054668 -s 2 -d 3 -p cbr -e 210 -c 1 -i 18 -a 1 -x {0.0 4.0 14 ------- null}
r -t 0.055528 -s 3 -d 4 -p cbr -e 210 -c 1 -i 13 -a 1 -x {0.0 4.0 9 ------- null}
+ -t 0.05625 -s 0 -d 2 -p cbr -e 210 -c 1 -i 19 -a 1 -x {0.0 4.0 15 ------- null}
- -t 0.05625 -s 0 -d 2 -p cbr -e 210 -c 1 -i 19 -a 1 -x {0.0 4.0 15 ------- null}
h -t 0.05625 -s 0 -d 2 -p cbr -e 210 -c 1 -i 19 -a 1 -x {0.0 4.0 -1 ------- null}
r -t 0.058418 -s 0 -d 2 -p cbr -e 210 -c 1 -i 19 -a 1 -x {0.0 4.0 15 ------- null}
+ -t 0.058418 -s 2 -d 3 -p cbr -e 210 -c 1 -i 19 -a 1 -x {0.0 4.0 15 ------- null}
+ -t 0.06 -s 0 -d 2 -p cbr -e 210 -c 1 -i 20 -a 1 -x {0.0 4.0 16 ------- null}
- -t 0.06 -s 0 -d 2 -p cbr -e 210 -c 1 -i 20 -a 1 -x {0.0 4.0 16 ------- null}
h -t 0.06 -s 0 -d 2 -p cbr -e 210 -c 1 -i 20 -a 1 -x {0.0 4.0 -1 ------- null}
r -t 0.062168 -s 0 -d 2 -p cbr -e 210 -c 1 -i 20 -a 1 -x {0.0 4.0 16 ------- null}
+ -t 0.062168 -s 2 -d 3 -p cbr -e 210 -c 1 -i 20 -a 1 -x {0.0 4.0 16 ------- null}
+ -t 0.06375 -s 0 -d 2 -p cbr -e 210 -c 1 -i 21 -a 1 -x {0.0 4.0 17 ------- null}
- -t 0.06375 -s 0 -d 2 -p cbr -e 210 -c 1 -i 21 -a 1 -x {0.0 4.0 17 ------- null}
h -t 0.06375 -s 0 -d 2 -p cbr -e 210 -c 1 -i 21 -a 1 -x {0.0 4.0 -1 ------- null}
- -t 0.065768 -s 2 -d 3 -p tcp -e 1040 -c 2 -i 12 -a 2 -x {1.0 5.0 2 ------- null}
h -t 0.065768 -s 2 -d 3 -p tcp -e 1040 -c 2 -i 12 -a 2 -x {1.0 5.0 -1 ------- null}
r -t 0.065918 -s 0 -d 2 -p cbr -e 210 -c 1 -i 21 -a 1 -x {0.0 4.0 17 ------- null}
+ -t 0.065918 -s 2 -d 3 -p cbr -e 210 -c 1 -i 21 -a 1 -x {0.0 4.0 17 ------- null}
+ -t 0.0675 -s 0 -d 2 -p cbr -e 210 -c 1 -i 22 -a 1 -x {0.0 4.0 18 ------- null}
- -t 0.0675 -s 0 -d 2 -p cbr -e 210 -c 1 -i 22 -a 1 -x {0.0 4.0 18 ------- null}
h -t 0.0675 -s 0 -d 2 -p cbr -e 210 -c 1 -i 22 -a 1 -x {0.0 4.0 -1 ------- null}
r -t 0.069668 -s 0 -d 2 -p cbr -e 210 -c 1 -i 22 -a 1 -x {0.0 4.0 18 ------- null}
+ -t 0.069668 -s 2 -d 3 -p cbr -e 210 -c 1 -i 22 -a 1 -x {0.0 4.0 18 ------- null}
+ -t 0.07125 -s 0 -d 2 -p cbr -e 210 -c 1 -i 23 -a 1 -x {0.0 4.0 19 ------- null}
- -t 0.07125 -s 0 -d 2 -p cbr -e 210 -c 1 -i 23 -a 1 -x {0.0 4.0 19 ------- null}
h -t 0.07125 -s 0 -d 2 -p cbr -e 210 -c 1 -i 23 -a 1 -x {0.0 4.0 -1 ------- null}
r -t 0.073418 -s 0 -d 2 -p cbr -e 210 -c 1 -i 23 -a 1 -x {0.0 4.0 19 ------- null}
+ -t 0.073418 -s 2 -d 3 -p cbr -e 210 -c 1 -i 23 -a 1 -x {0.0 4.0 19 ------- null}
r -t 0.073768 -s 2 -d 3 -p tcp -e 1040 -c 2 -i 11 -a 2 -x {1.0 5.0 1 ------- null}
+ -t 0.073768 -s 3 -d 5 -p tcp -e 1040 -c 2 -i 11 -a 2 -x {1.0 5.0 1 ------- null}
- -t 0.073768 -s 3 -d 5 -p tcp -e 1040 -c 2 -i 11 -a 2 -x {1.0 5.0 1 ------- null}
h -t 0.073768 -s 3 -d 5 -p tcp -e 1040 -c 2 -i 11 -a 2 -x {1.0 5.0 -1 ------- null}
+ -t 0.075 -s 0 -d 2 -p cbr -e 210 -c 1 -i 24 -a 1 -x {0.0 4.0 20 ------- null}
- -t 0.075 -s 0 -d 2 -p cbr -e 210 -c 1 -i 24 -a 1 -x {0.0 4.0 20 ------- null}
h -t 0.075 -s 0 -d 2 -p cbr -e 210 -c 1 -i 24 -a 1 -x {0.0 4.0 -1 ------- null}
r -t 0.077168 -s 0 -d 2 -p cbr -e 210 -c 1 -i 24 -a 1 -x {0.0 4.0 20 ------- null}
+ -t 0.077168 -s 2 -d 3 -p cbr -e 210 -c 1 -i 24 -a 1 -x {0.0 4.0 20 ------- null}
r -t 0.077432 -s 3 -d 5 -p tcp -e 1040 -c 2 -i 11 -a 2 -x {1.0 5.0 1 ------- null}
+ -t 0.077432 -s 5 -d 3 -p ack -e 40 -c 2 -i 25 -a 2 -x {5.0 1.0 1 ------- null}
- -t 0.077432 -s 5 -d 3 -p ack -e 40 -c 2 -i 25 -a 2 -x {5.0 1.0 1 ------- null}
h -t 0.077432 -s 5 -d 3 -p ack -e 40 -c 2 -i 25 -a 2 -x {5.0 1.0 -1 ------- null}
+ -t 0.07875 -s 0 -d 2 -p cbr -e 210 -c 1 -i 26 -a 1 -x {0.0 4.0 21 ------- null}
- -t 0.07875 -s 0 -d 2 -p cbr -e 210 -c 1 -i 26 -a 1 -x {0.0 4.0 21 ------- null}
h -t 0.07875 -s 0 -d 2 -p cbr -e 210 -c 1 -i 26 -a 1 -x {0.0 4.0 -1 ------- null}
r -t 0.079496 -s 5 -d 3 -p ack -e 40 -c 2 -i 25 -a 2 -x {5.0 1.0 1 ------- null}
+ -t 0.079496 -s 3 -d 2 -p ack -e 40 -c 2 -i 25 -a 2 -x {5.0 1.0 1 ------- null}
- -t 0.079496 -s 3 -d 2 -p ack -e 40 -c 2 -i 25 -a 2 -x {5.0 1.0 1 ------- null}
h -t 0.079496 -s 3 -d 2 -p ack -e 40 -c 2 -i 25 -a 2 -x {5.0 1.0 -1 ------- null}
r -t 0.080918 -s 0 -d 2 -p cbr -e 210 -c 1 -i 26 -a 1 -x {0.0 4.0 21 ------- null}
+ -t 0.080918 -s 2 -d 3 -p cbr -e 210 -c 1 -i 26 -a 1 -x {0.0 4.0 21 ------- null}
+ -t 0.0825 -s 0 -d 2 -p cbr -e 210 -c 1 -i 27 -a 1 -x {0.0 4.0 22 ------- null}
- -t 0.0825 -s 0 -d 2 -p cbr -e 210 -c 1 -i 27 -a 1 -x {0.0 4.0 22 ------- null}
h -t 0.0825 -s 0 -d 2 -p cbr -e 210 -c 1 -i 27 -a 1 -x {0.0 4.0 -1 ------- null}
r -t 0.084668 -s 0 -d 2 -p cbr -e 210 -c 1 -i 27 -a 1 -x {0.0 4.0 22 ------- null}
+ -t 0.084668 -s 2 -d 3 -p cbr -e 210 -c 1 -i 27 -a 1 -x {0.0 4.0 22 ------- null}
+ -t 0.08625 -s 0 -d 2 -p cbr -e 210 -c 1 -i 28 -a 1 -x {0.0 4.0 23 ------- null}
- -t 0.08625 -s 0 -d 2 -p cbr -e 210 -c 1 -i 28 -a 1 -x {0.0 4.0 23 ------- null}
h -t 0.08625 -s 0 -d 2 -p cbr -e 210 -c 1 -i 28 -a 1 -x {0.0 4.0 -1 ------- null}
- -t 0.086568 -s 2 -d 3 -p cbr -e 210 -c 1 -i 14 -a 1 -x {0.0 4.0 10 ------- null}
h -t 0.086568 -s 2 -d 3 -p cbr -e 210 -c 1 -i 14 -a 1 -x {0.0 4.0 -1 ------- null}
r -t 0.088296 -s 3 -d 2 -p ack -e 40 -c 2 -i 25 -a 2 -x {5.0 1.0 1 ------- null}
+ -t 0.088296 -s 2 -d 1 -p ack -e 40 -c 2 -i 25 -a 2 -x {5.0 1.0 1 ------- null}
- -t 0.088296 -s 2 -d 1 -p ack -e 40 -c 2 -i 25 -a 2 -x {5.0 1.0 1 ------- null}
h -t 0.088296 -s 2 -d 1 -p ack -e 40 -c 2 -i 25 -a 2 -x {5.0 1.0 -1 ------- null}
r -t 0.0884180000000001 -s 0 -d 2 -p cbr -e 210 -c 1 -i 28 -a 1 -x {0.0 4.0 23 ------- null}
+ -t 0.0884180000000001 -s 2 -d 3 -p cbr -e 210 -c 1 -i 28 -a 1 -x {0.0 4.0 23 ------- null}
+ -t 0.0900000000000001 -s 0 -d 2 -p cbr -e 210 -c 1 -i 29 -a 1 -x {0.0 4.0 24 ------- null}
- -t 0.0900000000000001 -s 0 -d 2 -p cbr -e 210 -c 1 -i 29 -a 1 -x {0.0 4.0 24 ------- null}
h -t 0.0900000000000001 -s 0 -d 2 -p cbr -e 210 -c 1 -i 29 -a 1 -x {0.0 4.0 -1 ------- null}
- -t 0.090768 -s 2 -d 3 -p cbr -e 210 -c 1 -i 15 -a 1 -x {0.0 4.0 11 ------- null}
h -t 0.090768 -s 2 -d 3 -p cbr -e 210 -c 1 -i 15 -a 1 -x {0.0 4.0 -1 ------- null}
r -t 0.0921680000000001 -s 0 -d 2 -p cbr -e 210 -c 1 -i 29 -a 1 -x {0.0 4.0 24 ------- null}
+ -t 0.0921680000000001 -s 2 -d 3 -p cbr -e 210 -c 1 -i 29 -a 1 -x {0.0 4.0 24 ------- null}
r -t 0.092328 -s 2 -d 1 -p ack -e 40 -c 2 -i 25 -a 2 -x {5.0 1.0 1 ------- null}
+ -t 0.092328 -s 1 -d 2 -p tcp -e 1040 -c 2 -i 30 -a 2 -x {1.0 5.0 3 ------- null}
- -t 0.092328 -s 1 -d 2 -p tcp -e 1040 -c 2 -i 30 -a 2 -x {1.0 5.0 3 ------- null}
h -t 0.092328 -s 1 -d 2 -p tcp -e 1040 -c 2 -i 30 -a 2 -x {1.0 5.0 -1 ------- null}
+ -t 0.092328 -s 1 -d 2 -p tcp -e 1040 -c 2 -i 31 -a 2 -x {1.0 5.0 4 ------- null}
- -t 0.09316 -s 1 -d 2 -p tcp -e 1040 -c 2 -i 31 -a 2 -x {1.0 5.0 4 ------- null}
h -t 0.09316 -s 1 -d 2 -p tcp -e 1040 -c 2 -i 31 -a 2 -x {1.0 5.0 -1 ------- null}
+ -t 0.0937500000000001 -s 0 -d 2 -p cbr -e 210 -c 1 -i 32 -a 1 -x {0.0 4.0 25 ------- null}
- -t 0.0937500000000001 -s 0 -d 2 -p cbr -e 210 -c 1 -i 32 -a 1 -x {0.0 4.0 25 ------- null}
h -t 0.0937500000000001 -s 0 -d 2 -p cbr -e 210 -c 1 -i 32 -a 1 -x {0.0 4.0 -1 ------- null}
r -t 0.094568 -s 2 -d 3 -p tcp -e 1040 -c 2 -i 12 -a 2 -x {1.0 5.0 2 ------- null}
+ -t 0.094568 -s 3 -d 5 -p tcp -e 1040 -c 2 -i 12 -a 2 -x {1.0 5.0 2 ------- null}
- -t 0.094568 -s 3 -d 5 -p tcp -e 1040 -c 2 -i 12 -a 2 -x {1.0 5.0 2 ------- null}
h -t 0.094568 -s 3 -d 5 -p tcp -e 1040 -c 2 -i 12 -a 2 -x {1.0 5.0 -1 ------- null}
- -t 0.094968 -s 2 -d 3 -p cbr -e 210 -c 1 -i 16 -a 1 -x {0.0 4.0 12 ------- null}
h -t 0.094968 -s 2 -d 3 -p cbr -e 210 -c 1 -i 16 -a 1 -x {0.0 4.0 -1 ------- null}
r -t 0.0959180000000001 -s 0 -d 2 -p cbr -e 210 -c 1 -i 32 -a 1 -x {0.0 4.0 25 ------- null}
+ -t 0.0959180000000001 -s 2 -d 3 -p cbr -e 210 -c 1 -i 32 -a 1 -x {0.0 4.0 25 ------- null}
r -t 0.09716 -s 1 -d 2 -p tcp -e 1040 -c 2 -i 30 -a 2 -x {1.0 5.0 3 ------- null}
+ -t 0.09716 -s 2 -d 3 -p tcp -e 1040 -c 2 -i 30 -a 2 -x {1.0 5.0 3 ------- null}
+ -t 0.0975000000000001 -s 0 -d 2 -p cbr -e 210 -c 1 -i 33 -a 1 -x {0.0 4.0 26 ------- null}
- -t 0.0975000000000001 -s 0 -d 2 -p cbr -e 210 -c 1 -i 33 -a 1 -x {0.0 4.0 26 ------- null}
h -t 0.0975000000000001 -s 0 -d 2 -p cbr -e 210 -c 1 -i 33 -a 1 -x {0.0 4.0 -1 ------- null}
r -t 0.097992 -s 1 -d 2 -p tcp -e 1040 -c 2 -i 31 -a 2 -x {1.0 5.0 4 ------- null}
+ -t 0.097992 -s 2 -d 3 -p tcp -e 1040 -c 2 -i 31 -a 2 -x {1.0 5.0 4 ------- null}
r -t 0.098232 -s 3 -d 5 -p tcp -e 1040 -c 2 -i 12 -a 2 -x {1.0 5.0 2 ------- null}
+ -t 0.098232 -s 5 -d 3 -p ack -e 40 -c 2 -i 34 -a 2 -x {5.0 1.0 2 ------- null}
- -t 0.098232 -s 5 -d 3 -p ack -e 40 -c 2 -i 34 -a 2 -x {5.0 1.0 2 ------- null}
h -t 0.098232 -s 5 -d 3 -p ack -e 40 -c 2 -i 34 -a 2 -x {5.0 1.0 -1 ------- null}
r -t 0.098768 -s 2 -d 3 -p cbr -e 210 -c 1 -i 14 -a 1 -x {0.0 4.0 10 ------- null}
+ -t 0.098768 -s 3 -d 4 -p cbr -e 210 -c 1 -i 14 -a 1 -x {0.0 4.0 10 ------- null}
- -t 0.098768 -s 3 -d 4 -p cbr -e 210 -c 1 -i 14 -a 1 -x {0.0 4.0 10 ------- null}
h -t 0.098768 -s 3 -d 4 -p cbr -e 210 -c 1 -i 14 -a 1 -x {0.0 4.0 -1 ------- null}
- -t 0.099168 -s 2 -d 3 -p cbr -e 210 -c 1 -i 17 -a 1 -x {0.0 4.0 13 ------- null}
h -t 0.099168 -s 2 -d 3 -p cbr -e 210 -c 1 -i 17 -a 1 -x {0.0 4.0 -1 ------- null}
r -t 0.0996680000000001 -s 0 -d 2 -p cbr -e 210 -c 1 -i 33 -a 1 -x {0.0 4.0 26 ------- null}
+ -t 0.0996680000000001 -s 2 -d 3 -p cbr -e 210 -c 1 -i 33 -a 1 -x {0.0 4.0 26 ------- null}
r -t 0.100296 -s 5 -d 3 -p ack -e 40 -c 2 -i 34 -a 2 -x {5.0 1.0 2 ------- null}
+ -t 0.100296 -s 3 -d 2 -p ack -e 40 -c 2 -i 34 -a 2 -x {5.0 1.0 2 ------- null}
- -t 0.100296 -s 3 -d 2 -p ack -e 40 -c 2 -i 34 -a 2 -x {5.0 1.0 2 ------- null}
h -t 0.100296 -s 3 -d 2 -p ack -e 40 -c 2 -i 34 -a 2 -x {5.0 1.0 -1 ------- null}
+ -t 0.10125 -s 0 -d 2 -p cbr -e 210 -c 1 -i 35 -a 1 -x {0.0 4.0 27 ------- null}
- -t 0.10125 -s 0 -d 2 -p cbr -e 210 -c 1 -i 35 -a 1 -x {0.0 4.0 27 ------- null}
h -t 0.10125 -s 0 -d 2 -p cbr -e 210 -c 1 -i 35 -a 1 -x {0.0 4.0 -1 ------- null}
r -t 0.101328 -s 3 -d 4 -p cbr -e 210 -c 1 -i 14 -a 1 -x {0.0 4.0 10 ------- null}
r -t 0.102968 -s 2 -d 3 -p cbr -e 210 -c 1 -i 15 -a 1 -x {0.0 4.0 11 ------- null}
+ -t 0.102968 -s 3 -d 4 -p cbr -e 210 -c 1 -i 15 -a 1 -x {0.0 4.0 11 ------- null}
- -t 0.102968 -s 3 -d 4 -p cbr -e 210 -c 1 -i 15 -a 1 -x {0.0 4.0 11 ------- null}
h -t 0.102968 -s 3 -d 4 -p cbr -e 210 -c 1 -i 15 -a 1 -x {0.0 4.0 -1 ------- null}
- -t 0.103368 -s 2 -d 3 -p cbr -e 210 -c 1 -i 18 -a 1 -x {0.0 4.0 14 ------- null}
h -t 0.103368 -s 2 -d 3 -p cbr -e 210 -c 1 -i 18 -a 1 -x {0.0 4.0 -1 ------- null}
r -t 0.103418 -s 0 -d 2 -p cbr -e 210 -c 1 -i 35 -a 1 -x {0.0 4.0 27 ------- null}
+ -t 0.103418 -s 2 -d 3 -p cbr -e 210 -c 1 -i 35 -a 1 -x {0.0 4.0 27 ------- null}
+ -t 0.105 -s 0 -d 2 -p cbr -e 210 -c 1 -i 36 -a 1 -x {0.0 4.0 28 ------- null}
- -t 0.105 -s 0 -d 2 -p cbr -e 210 -c 1 -i 36 -a 1 -x {0.0 4.0 28 ------- null}
h -t 0.105 -s 0 -d 2 -p cbr -e 210 -c 1 -i 36 -a 1 -x {0.0 4.0 -1 ------- null}
r -t 0.105528 -s 3 -d 4 -p cbr -e 210 -c 1 -i 15 -a 1 -x {0.0 4.0 11 ------- null}
r -t 0.107168 -s 2 -d 3 -p cbr -e 210 -c 1 -i 16 -a 1 -x {0.0 4.0 12 ------- null}
+ -t 0.107168 -s 3 -d 4 -p cbr -e 210 -c 1 -i 16 -a 1 -x {0.0 4.0 12 ------- null}
- -t 0.107168 -s 3 -d 4 -p cbr -e 210 -c 1 -i 16 -a 1 -x {0.0 4.0 12 ------- null}
h -t 0.107168 -s 3 -d 4 -p cbr -e 210 -c 1 -i 16 -a 1 -x {0.0 4.0 -1 ------- null}
r -t 0.107168 -s 0 -d 2 -p cbr -e 210 -c 1 -i 36 -a 1 -x {0.0 4.0 28 ------- null}
+ -t 0.107168 -s 2 -d 3 -p cbr -e 210 -c 1 -i 36 -a 1 -x {0.0 4.0 28 ------- null}
- -t 0.107568 -s 2 -d 3 -p cbr -e 210 -c 1 -i 19 -a 1 -x {0.0 4.0 15 ------- null}
h -t 0.107568 -s 2 -d 3 -p cbr -e 210 -c 1 -i 19 -a 1 -x {0.0 4.0 -1 ------- null}
+ -t 0.10875 -s 0 -d 2 -p cbr -e 210 -c 1 -i 37 -a 1 -x {0.0 4.0 29 ------- null}
- -t 0.10875 -s 0 -d 2 -p cbr -e 210 -c 1 -i 37 -a 1 -x {0.0 4.0 29 ------- null}
h -t 0.10875 -s 0 -d 2 -p cbr -e 210 -c 1 -i 37 -a 1 -x {0.0 4.0 -1 ------- null}
r -t 0.109096 -s 3 -d 2 -p ack -e 40 -c 2 -i 34 -a 2 -x {5.0 1.0 2 ------- null}
+ -t 0.109096 -s 2 -d 1 -p ack -e 40 -c 2 -i 34 -a 2 -x {5.0 1.0 2 ------- null}
- -t 0.109096 -s 2 -d 1 -p ack -e 40 -c 2 -i 34 -a 2 -x {5.0 1.0 2 ------- null}
h -t 0.109096 -s 2 -d 1 -p ack -e 40 -c 2 -i 34 -a 2 -x {5.0 1.0 -1 ------- null}
r -t 0.109728 -s 3 -d 4 -p cbr -e 210 -c 1 -i 16 -a 1 -x {0.0 4.0 12 ------- null}
r -t 0.110918 -s 0 -d 2 -p cbr -e 210 -c 1 -i 37 -a 1 -x {0.0 4.0 29 ------- null}
+ -t 0.110918 -s 2 -d 3 -p cbr -e 210 -c 1 -i 37 -a 1 -x {0.0 4.0 29 ------- null}
r -t 0.111368 -s 2 -d 3 -p cbr -e 210 -c 1 -i 17 -a 1 -x {0.0 4.0 13 ------- null}
+ -t 0.111368 -s 3 -d 4 -p cbr -e 210 -c 1 -i 17 -a 1 -x {0.0 4.0 13 ------- null}
- -t 0.111368 -s 3 -d 4 -p cbr -e 210 -c 1 -i 17 -a 1 -x {0.0 4.0 13 ------- null}
h -t 0.111368 -s 3 -d 4 -p cbr -e 210 -c 1 -i 17 -a 1 -x {0.0 4.0 -1 ------- null}
- -t 0.111768 -s 2 -d 3 -p cbr -e 210 -c 1 -i 20 -a 1 -x {0.0 4.0 16 ------- null}
h -t 0.111768 -s 2 -d 3 -p cbr -e 210 -c 1 -i 20 -a 1 -x {0.0 4.0 -1 ------- null}
+ -t 0.1125 -s 0 -d 2 -p cbr -e 210 -c 1 -i 38 -a 1 -x {0.0 4.0 30 ------- null}
- -t 0.1125 -s 0 -d 2 -p cbr -e 210 -c 1 -i 38 -a 1 -x {0.0 4.0 30 ------- null}
h -t 0.1125 -s 0 -d 2 -p cbr -e 210 -c 1 -i 38 -a 1 -x {0.0 4.0 -1 ------- null}
r -t 0.113128 -s 2 -d 1 -p ack -e 40 -c 2 -i 34 -a 2 -x {5.0 1.0 2 ------- null}
+ -t 0.113128 -s 1 -d 2 -p tcp -e 1040 -c 2 -i 39 -a 2 -x {1.0 5.0 5 ------- null}
- -t 0.113128 -s 1 -d 2 -p tcp -e 1040 -c 2 -i 39 -a 2 -x {1.0 5.0 5 ------- null}
h -t 0.113128 -s 1 -d 2 -p tcp -e 1040 -c 2 -i 39 -a 2 -x {1.0 5.0 -1 ------- null}
+ -t 0.113128 -s 1 -d 2 -p tcp -e 1040 -c 2 -i 40 -a 2 -x {1.0 5.0 6 ------- null}
r -t 0.113928 -s 3 -d 4 -p cbr -e 210 -c 1 -i 17 -a 1 -x {0.0 4.0 13 ------- null}
- -t 0.11396 -s 1 -d 2 -p tcp -e 1040 -c 2 -i 40 -a 2 -x {1.0 5.0 6 ------- null}
h -t 0.11396 -s 1 -d 2 -p tcp -e 1040 -c 2 -i 40 -a 2 -x {1.0 5.0 -1 ------- null}
r -t 0.114668 -s 0 -d 2 -p cbr -e 210 -c 1 -i 38 -a 1 -x {0.0 4.0 30 ------- null}
+ -t 0.114668 -s 2 -d 3 -p cbr -e 210 -c 1 -i 38 -a 1 -x {0.0 4.0 30 ------- null}
r -t 0.115568 -s 2 -d 3 -p cbr -e 210 -c 1 -i 18 -a 1 -x {0.0 4.0 14 ------- null}
+ -t 0.115568 -s 3 -d 4 -p cbr -e 210 -c 1 -i 18 -a 1 -x {0.0 4.0 14 ------- null}
- -t 0.115568 -s 3 -d 4 -p cbr -e 210 -c 1 -i 18 -a 1 -x {0.0 4.0 14 ------- null}
h -t 0.115568 -s 3 -d 4 -p cbr -e 210 -c 1 -i 18 -a 1 -x {0.0 4.0 -1 ------- null}
- -t 0.115968 -s 2 -d 3 -p cbr -e 210 -c 1 -i 21 -a 1 -x {0.0 4.0 17 ------- null}
h -t 0.115968 -s 2 -d 3 -p cbr -e 210 -c 1 -i 21 -a 1 -x {0.0 4.0 -1 ------- null}
+ -t 0.11625 -s 0 -d 2 -p cbr -e 210 -c 1 -i 41 -a 1 -x {0.0 4.0 31 ------- null}
- -t 0.11625 -s 0 -d 2 -p cbr -e 210 -c 1 -i 41 -a 1 -x {0.0 4.0 31 ------- null}